LAMMPS data file via write_data, version 29 Sep 2021, timestep = 5000000

15000 atoms
16 atom types
10000 bonds
8 bond types
18500 angles
13 angle types
24000 dihedrals
10 dihedral types

0 49.73967 xlo xhi
0 49.74841 ylo yhi
0 49.75219 zlo zhi
3.04621155345851e-15 3.04644301170355e-15 3.04644301170355e-15 xy xz yz

Masses

1 12.01
2 12.01
3 12.01
4 1.008
5 1.008
6 1.008
7 14.01
8 16
9 1.008
10 35.45
11 0.0001
12 0.0001
13 0.0001
14 0.0001
15 0.0001
16 0.0001

Bond Coeffs # harmonic

1 340 1.099
2 490 1.498
3 490 1.516
4 340 1.0805
5 317 1.521
6 340 1.085
7 450 1.395
8 553 0.949

Angle Coeffs # harmonic

1 35 110.01
2 35 108.9
3 51.8 110.2
4 35 106.4
5 70 116.6
6 35 108.3
7 80 109.6
8 35 109.3
9 35 111.6
10 35 110.9
11 35 108.73
12 35 108.6
13 35 107.4

Dihedral Coeffs # opls

1 0.1 0.55 0.65 0
2 0 0 0.825 0
3 0 0 0.94 0
4 0 1 0.7 0
5 -6 -5 3.2 0
6 -0.5 -2.5 0.25 0
7 -6 -7 0.75 0
8 6 -3 2 0
9 -0.356 -0.174 0.35 0
10 -3 1 -2 0

Atoms # full

8813 805 6 0.034 10.87112646089654 11.171874100801585 2.3303946108990465 0 0 1
361 37 5 0.068 0.8060581161330583 10.043533695091616 8.848923888782902 1 0 0
14505 0 15 0 19.625 11.414 10.630000000000003 0 0 0
88 8 4 0.033 6.453876709458013 6.661605614566453 9.783107469880816 0 0 0
246 24 7 0.791 24.420551341678735 5.140640637373694 10.763253326504945 0 0 0
10122 922 10 -0.8 6.349406669323494 0.5260964029792035 10.017828518584288 0 1 1
9059 824 4 0.033 24.57354798343178 5.292391308728034 1.0329634868891406 0 0 1
98 13 5 0.068 18.918331407392316 11.094268747123627 9.303731453784241 0 0 0
9326 848 4 0.033 3.896523449229284 12.447955905500256 0.8631096856045425 0 0 1
8963 816 6 0.034 17.29066565832032 5.785078237194687 1.332328782095426 0 0 1
8827 806 9 0.275 8.68931232531056 3.022427366717285 7.958317638046955 0 0 1
9266 846 8 -0.468 7.69528286162068 15.029911827138596 1.9037677235430746 0 0 1
10715 975 4 0.033 17.190803322341935 0.3278650872151465 6.507995601188399 0 1 1
1861 173 6 0.034 19.68032993139365 3.1375760554969228 11.384809888095608 0 1 0
8941 815 3 0.132 14.428043087724493 9.130920468116175 5.412017929396224 0 0 1
8854 807 6 0.034 3.162020942049868 9.855625829701028 3.19528757360706 0 0 1
8 5 2 -0.131 10.795541677254588 10.323579669277033 10.511326385094556 0 0 0
9623 878 5 0.068 0.11125191400454204 15.77273147284539 4.495084380747093 1 0 1
9040 823 1 -0.1 24.418331957606902 10.204118280281254 6.094961450942839 0 0 1
8894 813 9 0.275 17.571592224728704 11.58098558073383 0.7850533336548091 0 0 1
14991 0 15 0 24.457 0.972 5.906 0 0 0
510 48 7 0.791 5.177149424613242 15.6222896732081 10.401904457547532 0 0 0
247 24 2 -0.131 23.130911584902595 4.407136304199057 11.205573351830937 0 0 0
10655 973 7 0.791 21.568816175331612 0.5941983722850332 0.2745769765315165 0 1 1
9398 856 7 0.791 15.67929926751538 15.21999259377996 0.5470075516655261 0 0 1
10627 967 4 0.033 5.475721253602895 1.3234467505770628 7.718097203801317 0 1 1
9620 878 7 0.791 0.18854058489764436 15.021925048108443 6.584707821893393 1 0 1
8852 807 5 0.068 5.210934457444591 7.594058869449805 3.573966717393816 0 0 1
2120 197 2 -0.131 0.3708958042428655 0.26637015514636697 10.609948368065094 1 1 0
10615 967 6 0.034 7.158857524697934 1.0383293895890418 5.436628593469731 0 1 1
8808 805 2 -0.131 9.98316335552623 9.369211521185361 1.3831486738658518 0 0 1
10625 967 4 0.033 3.8416986806577573 1.8343605047970961 7.146158305477323 0 1 1
8921 814 6 0.034 19.74270528364212 2.898144207628568 4.711896630504779 0 0 1
8845 806 4 0.033 9.839613034078319 6.082084438152735 3.4251157954496345 0 0 1
8856 807 1 -0.1 6.045980094506818 8.50892376665931 6.079123681124332 0 0 1
8857 807 4 0.033 7.096859805925393 8.442996512736695 5.764311800263199 0 0 1
8859 807 4 0.033 6.083601946904952 9.22363024959747 6.913138261936733 0 0 1
8858 807 4 0.033 5.588912146319217 7.609497763038824 6.514926368204107 0 0 1
8939 815 5 0.068 15.508495273861294 8.759970143212163 7.1907401223332625 0 0 1
10704 975 1 -0.1 14.763463849543188 0.8267513680039266 4.106460216336549 0 1 1
9626 878 6 0.034 0.5684200936699902 13.289974618459098 4.132232312193631 1 0 1
8938 815 2 -0.131 15.510255875601937 8.359111472914597 6.187351113191058 0 0 1
4841 441 10 -0.8 0.9434998827973627 4.83472586916285 0.1694355397728274 0 0 1
8885 808 1 -0.1 4.4937997206589255 4.75865350683242 0.4861965721049335 0 0 1
8898 813 5 0.068 20.833212864776268 11.280904799807482 0.19062777631892427 0 0 1
14504 0 15 0 5.748999999999981 5.704000000000001 9.813 0 0 0
248 24 5 0.068 22.974867227707836 3.568229424107795 10.542726669754071 0 0 0
8904 813 4 0.033 22.44767956188017 7.648055491447102 0.5436392315467663 0 0 1
10668 973 4 0.033 22.454132501065676 2.455470206936667 0.529898430011171 0 1 1
8862 807 4 0.033 4.454147519562962 10.500185379953697 6.612457888736475 0 0 1
9489 864 5 0.068 23.563078749115178 13.506897839807994 0.19372450974173547 0 0 1
14081 0 16 0 10.636 2.193 7.743 0 0 0
10707 975 4 0.033 14.329385150133042 1.7344789292136278 4.548509954535242 0 1 1
162 16 3 0.132 16.39439085241744 3.9952710198215073 11.905050818126188 0 0 0
1772 165 6 0.034 12.102743666216986 1.0002748104338168 9.24582435715155 0 1 0
9166 837 1 -0.1 0.8509483979002643 10.671773006137359 1.4471502404458905 1 0 1
13926 0 13 0 19.958 14.849 6.614 0 0 0
362 37 5 0.068 0.4057267369474221 11.579952996648151 9.168018331342207 1 0 0
10702 975 6 0.034 14.10147810039552 0.5728491084635745 7.979235586206529 0 1 1
359 37 7 0.791 0.2759426007267637 10.398547952187037 10.965316752508588 1 0 0
10583 965 4 0.033 10.083924095824113 2.1954066469888054 2.769098953244052 0 1 1
10623 967 4 0.033 4.509210719648046 0.29258410310946914 4.593487035706474 0 1 1
8811 805 3 0.132 11.127152951189517 10.138032893888695 2.1233970712757717 0 0 1
8940 815 5 0.068 15.25912603802919 7.309989308630716 6.126054766310315 0 0 1
8888 808 4 0.033 3.860560458457007 5.259684018170283 1.231701675067804 0 0 1
10581 965 4 0.033 11.064172174138548 0.08260596676741841 2.722185745146727 0 1 1
9191 838 1 -0.1 0.04313448781288985 4.373335128129719 6.827545304637035 1 0 1
13907 0 13 0 14.405 11.701 4.741 0 0 0
261 24 1 -0.1 24.167576896012694 6.593121403607742 11.050727817158723 0 0 0
9188 838 4 0.033 2.6908297982192972 4.154488266661698 6.183551380896462 1 0 1
256 24 4 0.033 23.855296826105864 5.453572107072977 8.724488819449432 0 0 0
9406 856 4 0.033 14.958376698178913 13.386068843416268 1.3595459522623619 0 0 1
10706 975 4 0.033 15.42185335559275 1.4655224881371367 3.501236452711853 0 1 1
9332 852 10 -0.8 16.15979729147559 15.675736521941735 5.144808674991217 0 0 1
9402 856 3 0.132 18.160850015814635 16.076395793555623 0.850494701534158 0 0 1
10784 983 9 0.275 24.139340185134873 1.6096637333673156 9.083185687194234 0 1 1
9306 847 4 0.033 4.497493237830521 16.42555625253727 3.457241449428574 0 0 1
6514 594 10 -0.8 5.555461468911519 1.2761528789559076 0.9575601681084769 1 1 1
8844 806 4 0.033 9.438730415651778 6.7190757589127 5.092589713802182 0 0 1
8831 806 5 0.068 9.331039946616638 3.8646915021266457 4.497476291954406 0 0 1
8843 806 1 -0.1 10.218356060013422 6.3192767335413045 4.429154980794787 0 0 1
8846 806 4 0.033 10.979771599898077 7.076504439113909 4.195373566847853 0 0 1
163 16 6 0.034 15.954534671288648 3.314078779569825 11.18412864082704 0 0 0
105 13 4 0.033 18.897295532468444 12.270907983054549 11.468248387339626 0 0 0
8847 807 8 -0.468 3.0813719213443256 7.951541089657192 2.185699961188521 0 0 1
1779 165 4 0.033 8.30233015333652 2.0620830581981755 11.451646188930795 0 1 0
9488 864 5 0.068 24.364311713941664 12.111592506104808 0.5475941695015123 0 0 1
1860 173 6 0.034 18.482071219593017 3.030176344880052 10.285041813272509 0 1 0
1768 165 2 -0.131 10.077862063616648 1.619404820565268 9.9175333410242 0 1 0
8955 815 4 0.033 17.232901091990712 6.229970014295725 5.449593847674034 0 0 1
253 24 1 -0.1 24.619377740919624 5.013959473656603 9.380783071405217 0 0 0
516 48 6 0.034 3.0391612554737377 13.727052304340946 10.336990360764354 0 0 0
8842 806 4 0.033 12.380035785677244 6.51807974757842 5.781118784151427 0 0 1
10649 969 10 -0.8 5.481207820947069 10.632937056379113 10.732738288673643 0 1 1
14032 0 16 0 23.644999999999996 12.203 9.313 0 0 0
9371 854 1 -0.1 19.378961923062032 12.566155429356552 5.810067972353366 0 0 1
14028 0 16 0 12.806 13.998000000000001 11.213 0 0 0
8867 807 4 0.033 6.66754687862495 9.531704351331696 3.9012202800450626 0 0 1
14938 0 15 0 1.5459999999999994 15.069 4.867000000000001 0 0 0
599 56 2 -0.131 13.770210519321044 14.867142706670247 8.682471758164386 0 0 0
13428 0 14 0 14.005000000000003 16.191 0.356 0 0 0
8865 807 4 0.033 6.475646850417299 10.895259248387694 5.16911396598365 0 0 1
8903 813 4 0.033 21.868417207284747 9.096827229683527 1.4045391530168903 0 0 1
24 5 4 0.033 8.22640432836923 8.196340364123028 10.445696873466787 0 0 0
8832 806 3 0.132 8.775945233904423 4.560494143697204 6.540255233026134 0 0 1
14501 0 15 0 10.864 10.733 9.627 0 0 0
8848 807 9 0.275 3.2951388104763906 8.12244093116851 1.277020077393851 0 0 1
10621 967 4 0.033 3.0076935203088215 0.12071053107638995 5.428988206755784 0 1 1
10585 965 4 0.033 8.538708893384774 2.198135537030271 1.9586940850548706 0 1 1
10658 973 5 0.068 20.111490997777224 2.134124526829303 0.5680057543479078 0 1 1
168 16 4 0.033 15.380541367241177 7.596175217056023 12.396536346798298 0 0 0
5548 508 10 -0.8 24.322309647029236 10.290344761962578 9.78183880932382 0 0 0
9192 838 4 0.033 0.7982846422039204 4.3076680262022125 7.6233074463522525 1 0 1
1767 165 7 0.791 10.149541153077712 1.3410677061230867 11.44464319456675 0 1 0
10714 975 4 0.033 17.36521365851602 1.3246253662013145 5.033873968810329 0 1 1
8864 807 1 -0.1 6.016365377762727 10.268665097430702 4.391783861961079 0 0 1
8866 807 4 0.033 5.446924448137917 10.77136035095941 3.597532300933171 0 0 1
10919 997 7 0.791 0.7975482923149008 0.6490603152699342 1.2149568614247541 1 1 1
8863 807 4 0.033 3.319585130250699 9.266375157739885 6.103482527519042 0 0 1
8830 806 5 0.068 10.239987663973727 3.361766240466088 5.951534089696887 0 0 1
8849 807 7 0.791 5.187278597539106 9.200833559954184 5.024993619528563 0 0 1
8860 807 1 -0.1 4.081082639054001 9.964398610110125 5.7284012450268795 0 0 1
8861 807 4 0.033 3.7623014516161306 10.742535985479227 5.02081242955766 0 0 1
7395 675 10 -0.8 4.95069061005614 5.219107617102032 5.214390837055782 1 0 1
8821 805 4 0.033 9.554685642617171 12.023926046524437 0.5656967231322682 0 0 1
9281 846 4 0.033 11.685495136578183 15.97431403999856 6.039241248304842 0 0 1
9360 854 3 0.132 19.3212315225019 15.563783672418365 6.848038621738287 0 0 1
10787 983 5 0.068 23.219587512450822 0.3919952154399271 6.341893361972637 0 1 1
9407 856 4 0.033 16.4844264283254 14.0456831113763 2.1214168514730574 0 0 1
9303 847 4 0.033 3.4000839896616823 16.435208928105332 5.547820393775165 0 0 1
13 5 6 0.034 9.5062903805282 11.105236334936615 12.026967187051692 0 0 0
10713 975 4 0.033 16.004084005953015 1.615620655378175 6.325203800132428 0 1 1
1765 165 8 -0.468 11.05725474236169 1.6921905126540273 7.699857091956966 0 1 0
603 56 6 0.034 15.4168255476034 13.625594057996349 8.954142289591758 0 0 0
75 8 6 0.034 3.8442324835286 2.7960624840348074 10.996286888713213 0 0 0
9325 848 1 -0.1 4.185368013007374 13.486121745524088 1.0789372416018397 0 0 1
254 24 4 0.033 24.54799768521192 4.039779935227132 8.87711528781495 0 0 0
10669 973 4 0.033 23.17779364073803 1.0540390396591044 1.6878892990576542 0 1 1
80 8 4 0.033 6.6878938353571 4.264364456470376 11.149445834655642 0 0 0
9041 823 4 0.033 24.344405797035662 11.005250951136643 5.346280928367602 0 0 1
695 64 4 0.033 23.729203982458234 14.868807938729965 8.354723481888914 0 0 0
8872 808 5 0.068 5.568083329085127 7.534505413735116 1.0595123050857618 0 0 1
9624 878 3 0.132 1.2959019604444582 14.023535778211395 4.463718739571533 1 0 1
1859 173 3 0.132 19.56384423290037 3.11102109666478 10.306407848559955 0 1 0
689 64 5 0.068 24.430911287896045 15.098323788575614 11.890507101409318 0 0 0
10788 983 5 0.068 24.75662953408302 1.378999501305506 6.38434109191331 0 1 1
2123 197 3 0.132 0.9245131712946372 0.08464389577972826 12.017664765724044 1 1 0
8851 807 5 0.068 3.7038504734906885 7.894150193100685 4.474765606594345 0 0 1
8840 806 4 0.033 12.284298250416299 4.791613308083132 6.629425411952782 0 0 1
8850 807 2 -0.131 4.554438712333792 8.346918332170933 3.985908772651687 0 0 1
8853 807 3 0.132 3.765944134085694 9.021838735724646 2.8527950972100244 0 0 1
8855 807 6 0.034 4.183910762412823 9.639832710956933 2.065005475667558 0 0 1
9273 846 6 0.034 9.05515942353983 13.780517931567772 2.434738812700926 0 0 1
10582 965 1 -0.1 9.380230175884247 1.5455476338490033 2.2303042412965257 0 1 1
172 16 4 0.033 14.431831651543417 4.636796202818024 9.678877238201611 0 0 0
9278 846 4 0.033 8.691725394626625 15.355332492020091 6.582753464134825 0 0 1
1853 173 8 -0.468 19.769412206016337 4.266180523138256 9.482673270047352 0 1 0
9408 856 4 0.033 16.56949456362207 13.241622939628542 0.5938655761792077 0 0 1
13906 0 13 0 20.392 4.977999999999999 6.022 0 0 0
9619 878 9 0.275 2.6898110651958715 14.293117996373597 3.341339140088055 1 0 1
9185 838 6 0.034 0.11541182398325545 6.432841253692934 3.3816247988613624 1 0 1
8954 815 4 0.033 18.692233831732214 7.198090137166321 5.370912783414158 0 0 1
9283 846 1 -0.1 11.091034993362948 14.203708413180832 4.373929870300744 0 0 1
8946 815 4 0.033 17.946899755459278 9.75721360358687 6.736629518364643 0 0 1
8900 813 6 0.034 18.388225132698413 9.48140848486665 0.04286900183879995 0 0 1
10584 965 4 0.033 9.018213914158947 0.703434831284237 2.8365974875697817 0 1 1
93 13 8 -0.468 20.636994132407462 10.191399585631316 7.154834920783273 0 0 0
9634 878 4 0.033 1.364939467331547 13.302820514287728 7.299313528623737 1 0 1
8833 806 6 0.034 9.434159075514867 5.003361285146402 7.280422998789484 0 0 1
13517 0 13 0 0.47499999953730027 9.404 11.221 0 0 0
9503 864 4 0.033 24.696392288522247 15.746589953877034 0.7236440890039413 0 0 1
8937 815 7 0.791 16.85240086708031 8.290130669665425 5.52709441222935 0 0 1
14905 0 15 0 19.997 11.27 0.954 0 0 0
1770 165 5 0.068 9.081647001757277 1.5954625096163602 9.499846167757411 0 1 0
9405 856 1 -0.1 15.918184143071569 13.894413060303341 1.191745838881759 0 0 1
513 48 5 0.068 4.5173159368198625 14.604141996808627 8.536453723536756 0 0 0
8871 808 2 -0.131 6.08271745766035 6.655118489196546 0.6999141887952932 0 0 1
13922 0 13 0 9.298 15.503 3.468 0 0 0
8835 806 1 -0.1 11.64850158402805 4.435037326120376 3.9298383507085393 0 0 1
8836 806 4 0.033 12.073255924657714 3.476575574635747 4.259589743473445 0 0 1
8837 806 4 0.033 12.503042168797101 5.066523226963998 3.6491481790861764 0 0 1
8838 806 4 0.033 11.02995236137956 4.513886633819238 3.024862682510846 0 0 1
108 13 4 0.033 22.049050284363048 10.639489713949224 11.061919803646385 0 0 0
9167 837 4 0.033 1.4572215319625779 10.425225277254793 0.5642866297003009 1 0 1
102 13 1 -0.1 19.7913694778274 11.687621505124586 11.729418737822263 0 0 0
174 16 4 0.033 16.957501595660073 6.111255348920389 9.418746738887425 0 0 0
9631 878 1 -0.1 1.1865933778500655 14.36559963911099 7.5149392527761165 1 0 1
7217 657 10 -0.8 20.183403342907877 6.334679930215435 11.540946724932285 0 0 1
8828 806 7 0.791 10.869439249749666 5.161824106524908 4.999287937220978 0 0 1
8829 806 2 -0.131 9.792625242176543 4.188734126495408 5.419113875924197 0 0 1
8834 806 6 0.034 8.062566138427716 5.249991379610199 6.1010412815559505 0 0 1
8839 806 1 -0.1 11.815726233572676 5.627517563078451 6.091368270864723 0 0 1
8841 806 4 0.033 11.246636887160793 6.0369113455467165 6.937734101916321 0 0 1
8942 815 6 0.034 14.630781193937482 10.173709870033163 5.191306527209402 0 0 1
8944 815 1 -0.1 17.562458872336524 9.643195863343243 5.713396257491238 0 0 1
10666 973 1 -0.1 22.352438341170807 1.5859316680143243 1.194249677112805 0 1 1
9268 846 7 0.791 10.089350628419062 15.26458352891624 4.882685414798124 0 0 1
9169 837 4 0.033 1.1203866051540556 11.673701787324031 1.809562895834661 1 0 1
95 13 7 0.791 19.9180037189689 10.434413273350469 10.86595074644496 0 0 0
1870 173 1 -0.1 18.181870405022625 0.3679772963921153 10.433449172211082 0 1 0
14517 0 15 0 1.086 10.246 10.129 0 0 0
18 5 1 -0.1 8.673049690596955 10.411212660353089 8.978264207819585 0 0 0
8914 814 8 -0.468 18.255869552939007 4.0070181935701115 4.0817554088289745 0 0 1
8826 806 8 -0.468 8.302993323727016 3.3791160819610253 7.168297412363554 0 0 1
84 8 4 0.033 3.444911407844203 6.451828157590459 9.48562733418083 0 0 0
1766 165 9 0.275 10.624240453609717 1.1946502496093052 7.017542399466881 0 1 0
97 13 5 0.068 20.55563030044898 11.709878258074308 9.380253038343259 0 0 0
14418 0 16 0 0.888 6.280000000000009 7.98 0 0 0
881 81 10 -0.8 9.750255816263422 15.917879922175548 10.308778107494465 0 0 0
13987 0 13 0 16.274 0.011 5.5280000000000005 0 0 0
13418 0 14 0 0.321 5.726 6.808 0 0 0
1857 173 5 0.068 19.68376775113223 2.039350661928132 8.658279400597475 0 1 0
170 16 4 0.033 13.541981260668729 6.209824345905424 9.459198501201536 0 0 0
6164 564 10 -0.8 9.63128636185427 4.969074433506393 10.22695233857274 0 1 0
14932 0 15 0 24.735999999999997 15.659 0.288 0 0 0
9042 823 4 0.033 23.88954786686211 10.48974519433488 7.0150732455510045 0 0 1
10579 965 4 0.033 12.068606310623597 1.0874075462971309 1.7912505325377226 0 1 1
509 48 9 0.275 3.8717188319956817 11.445312157268411 9.05802338293359 0 0 0
14483 0 16 0 2.5159999976185783 0.191 3.571 0 0 0
374 37 1 -0.1 1.709559956983535 10.41206659689036 11.372129461035875 1 0 0
517 48 1 -0.1 3.8251270541358937 16.051937049935553 10.982700605638703 0 0 0
82 8 4 0.033 4.302504258089404 7.079279889553876 10.959010279359353 0 0 0
96 13 2 -0.131 19.95955707776037 10.8092044724485 9.349204765972273 0 0 0
9596 876 10 -0.8 0.40686313799204005 15.869508642785743 10.99675103850927 1 0 1
6691 611 10 -0.8 16.334779271401494 10.596914654059049 9.222914757339884 0 0 1
10476 956 10 -0.8 10.69200526306881 0.3525946826125169 5.148990495954638 1 1 1
9275 846 1 -0.1 9.380234574021141 14.681496347590006 6.053885761189228 0 0 1
8819 805 4 0.033 8.09260289284027 11.238834219030439 0.6499156550471661 0 0 1
10935 997 4 0.033 2.696875018300958 0.24601479188068182 2.2686356824015665 1 1 1
8869 808 9 0.275 7.79864561400472 6.647088831179255 3.3530537527057453 0 0 1
17 5 4 0.033 9.750507707682843 8.054701120837755 8.072023795700128 0 0 0
8943 815 6 0.034 14.474026943602654 8.663579199352062 4.433906017551361 0 0 1
1771 165 3 0.132 11.07859623383123 0.9650196473173546 8.889307716037948 0 1 0
13902 0 13 0 10.712 5.729 4.793000000000001 0 0 0
14987 0 15 0 15.580999999999998 1.3440000000000003 5.495 0 0 0
13918 0 13 0 0.875 6.582 5.683 0 0 0
8962 816 3 0.132 17.36948494014623 5.234119745211954 0.4009548138311948 0 0 1
9168 837 4 0.033 1.0844698971770956 9.910339617478026 2.2044403534514028 1 0 1
14508 0 15 0 14.425 6.218 10.498000000000001 0 0 0
10665 973 4 0.033 20.31373948510827 0.14511097306494936 1.9667255268889958 0 1 1
78 8 4 0.033 5.178863182825145 4.403131627199843 12.1236622156165 0 0 0
9357 854 2 -0.131 20.44212730039467 14.857701712839276 6.0552618248623515 0 0 1
1854 173 9 0.275 20.038690671225424 4.830683125535439 10.196415008895624 0 1 0
13505 0 13 0 20.83 10.672999999999998 11.284 0 0 0
9197 838 4 0.033 0.17806221227165675 6.942948115093745 6.191986806483195 1 0 1
9369 854 4 0.033 19.30593999808372 13.365101929420533 3.1141223125565474 0 0 1
14904 0 15 0 4.717 5.51 0.583 0 0 0
112 13 4 0.033 18.773132734066618 8.671102805640114 10.582387721823917 0 0 0
1858 173 5 0.068 21.180092542463147 2.0082135556891254 9.571573066782449 0 1 0
8929 814 4 0.033 23.29887465923235 3.2667972661084157 5.54717500908183 0 0 1
8947 815 4 0.033 16.90603756388483 10.476481719130453 5.426086418415674 0 0 1
106 13 1 -0.1 21.266601883232187 9.872759825353455 11.149674402699473 0 0 0
8810 805 5 0.068 9.034728207545957 9.271674346140303 1.8915166221157658 0 0 1
14981 0 15 0 10.452999999999998 1.309 0.579 0 0 0
9196 838 4 0.033 1.7445071811293227 6.561473932055286 6.83012304864783 1 0 1
8806 805 9 0.275 10.931004193401604 9.983925022818886 3.943615080484382 0 0 1
9274 846 6 0.034 7.762409845785272 13.715984464615621 3.5282036339989356 0 0 1
10928 997 4 0.033 1.091717874903951 2.235859983493759 2.6970516849324158 1 1 1
360 37 2 -0.131 0.04054272288653897 10.586341859732599 9.384485175989392 1 0 0
9328 848 4 0.033 5.074376313374594 13.43359069386639 1.7229139003498675 0 0 1
9195 838 1 -0.1 1.080855532054128 6.353474880801188 5.9791800496246 1 0 1
9358 854 5 0.068 20.945937751367737 15.64584987205272 5.514449565995911 0 0 1
8952 815 1 -0.1 17.709078176171737 7.132496797730542 5.857640187094952 0 0 1
77 8 1 -0.1 5.795278943082814 4.87475014962092 11.345581781917488 0 0 0
9632 878 4 0.033 0.760906405669136 14.183224345920202 8.51159913039898 1 0 1
9485 864 9 0.275 22.77319320919994 11.30662137715367 2.675976038602908 0 0 1
9484 864 8 -0.468 22.571738292809226 12.155898340925702 2.303490373208241 0 0 1
10786 983 2 -0.131 24.26781281885092 0.4397481728885904 6.599621170379985 0 1 1
9362 854 6 0.034 18.91099895692677 14.842883571184567 7.54749405100025 0 0 1
9621 878 2 -0.131 0.7371314021314226 15.229781007126888 5.1885972413544925 1 0 1
2731 251 10 -0.8 21.688816682041196 4.652716944210886 1.0740828531985562 0 0 0
10624 967 1 -0.1 4.706065387495421 1.185892734560083 6.945756768793001 0 1 1
9491 864 6 0.034 24.267434633174204 12.76507554140247 3.058018574748073 0 0 1
6865 625 10 -0.8 11.282996783660309 15.572047077511296 0.5996767333929014 0 0 1
2995 275 10 -0.8 20.642171138598066 0.283149848482465 5.457141041385486 0 0 0
8936 815 9 0.275 12.491177881302661 9.58470110679041 6.0849822434492955 0 0 1
8886 808 4 0.033 5.089491751040999 4.014964536454801 1.0338085210664967 0 0 1
83 8 4 0.033 3.1749097048525083 5.782816483946422 11.075880956426225 0 0 0
76 8 6 0.034 2.54715346717662 3.6313879993525324 10.202533067737525 0 0 0
13483 0 14 0 3.6140000000000003 0.688 4.313 0 0 0
9492 864 6 0.034 23.29562736529252 13.9591504406306 2.612745712622518 0 0 1
9186 838 6 0.034 0.9837360504299557 5.062865591201795 2.779054737751091 1 0 1
8874 808 3 0.132 6.9540329505460265 6.033054137405825 1.923101294677873 0 0 1
10705 975 4 0.033 14.236276381484263 0.28762622431383394 3.306948732406478 0 1 1
9487 864 2 -0.131 24.30734229135697 13.136786362366061 0.8840646839857915 0 0 1
14438 0 16 0 2.72 12.72 7.806 0 0 0
10703 975 6 0.034 12.876117428277668 0.19093307905660412 6.718222033261062 0 1 1
8964 816 6 0.034 17.423371349293014 4.178405303301046 0.6454712358144539 0 0 1
9373 854 4 0.033 19.738892037657656 12.461518067516138 6.843171373304048 0 0 1
8905 813 4 0.033 20.62228449335594 7.918255453094033 1.0153298577579553 0 0 1
8951 815 4 0.033 15.994951172078029 7.1655902961658 4.042856995151785 0 0 1
528 48 4 0.033 5.692108452740369 14.406009887314019 11.747368294905733 0 0 0
69 8 9 0.275 3.2082527456777377 1.2514313502630732 9.913867527722962 0 0 0
8805 805 8 -0.468 11.438055012366906 9.48967474940876 3.311778557561688 0 0 1
8945 815 4 0.033 18.45851144094182 9.689343075298977 5.078761366961156 0 0 1
9 5 5 0.068 11.512101437097579 10.722451284110473 9.807818012180062 0 0 0
107 13 4 0.033 21.195586758100433 9.4603241219937 12.165870664330592 0 0 0
14 5 1 -0.1 10.439897093695915 8.639674188397223 8.696803604954749 0 0 0
14512 0 15 0 24.717 5.670000000000001 10.612000000000002 0 0 0
13403 0 14 0 4.523 8.917 4.906 0 0 0
376 37 4 0.033 2.2125628400483994 9.723483965388624 10.678845063008955 1 0 0
14412 0 16 0 22.176 4.317 0.12400000000000001 0 0 0
9184 838 3 0.132 0.02896961313266981 5.3675553019202304 3.1947594933095464 1 0 1
8953 815 4 0.033 17.904649689395264 6.990794282065426 6.929775118532583 0 0 1
70 8 7 0.791 5.09472870518286 5.175688570113523 10.087327800827852 0 0 0
8922 814 6 0.034 19.174012868038005 4.181120419658403 5.8241957391535655 0 0 1
20 5 4 0.033 8.175938621445493 9.691779171517561 8.31260881119579 0 0 0
249 24 5 0.068 22.368353940117462 5.166954993369422 11.112505376459245 0 0 0
13438 0 14 0 2.786 13.857000000000001 6.819000000000001 0 0 0
13532 0 13 0 24.329 14.474999999999998 9.661 0 0 0
8948 815 1 -0.1 16.683636566966474 8.021935427397942 4.056513145540244 0 0 1
262 24 4 0.033 23.9650507457815 6.62908262276465 12.130306887534745 0 0 0
9414 856 4 0.033 14.354768384865853 15.978650557651163 2.1483364305192314 0 0 1
109 13 4 0.033 21.529449647843503 8.960598665205502 10.595892590536222 0 0 0
13938 0 13 0 1.6240000000000008 13.895000000000001 5.79 0 0 0
10697 975 7 0.791 15.57031309403891 0.04767211805048982 5.125348719346189 0 1 1
514 48 3 0.132 3.9255845985507594 13.255106239228299 9.926203778109123 0 0 0
8965 816 1 -0.1 14.633224792383732 5.067756501731488 1.4958884886549544 0 0 1
8809 805 5 0.068 10.336127491197797 8.349669946299256 1.3245679892209279 0 0 1
13402 0 14 0 11.648 6.852 4.629 0 0 0
2642 242 10 -0.8 19.788558998343298 15.549819234713226 10.685815027894249 0 0 0
13528 0 13 0 14.929000000000002 14.771 10.992000000000003 0 0 0
8902 813 1 -0.1 21.588570306593617 8.31983779513414 0.679436269186348 0 0 1
1782 165 1 -0.1 11.485143359739995 1.8330581636004581 11.987906086840114 0 1 0
14926 0 15 0 20.92 15.095000000000002 5.433000000000001 0 0 0
10712 975 1 -0.1 16.64640143510966 0.9239833875747162 5.762294204227132 0 1 1
13912 0 13 0 24.326 4.598 0.975 0 0 0
9374 854 4 0.033 19.270288441435373 11.627785522028425 5.24841592014781 0 0 1
1856 173 2 -0.131 20.10995812632811 1.8741707684609932 9.637339087486637 0 1 0
263 24 4 0.033 23.30925245996097 7.049447752839492 10.538042282964852 0 0 0
8926 814 4 0.033 22.457254130901685 6.35707798545084 3.553587491733144 0 0 1
606 56 4 0.033 14.523472090922597 15.211405199937001 11.386418414402192 0 0 0
8924 814 4 0.033 23.37096518324097 4.772021464770848 3.565443062516437 0 0 1
103 13 4 0.033 20.63663920223142 12.262409136220395 11.32576124778213 0 0 0
9198 838 4 0.033 1.56193023364031 6.697143946838772 5.052756860365177 1 0 1
99 13 3 0.132 20.514764831916153 9.71905881931407 8.440505281256721 0 0 0
9622 878 5 0.068 1.6028830812116732 15.876103811007406 5.2034363375777914 1 0 1
605 56 1 -0.1 14.17576378492224 16.12991828962534 10.89323112138865 0 0 0
8931 814 1 -0.1 21.626130732131095 5.6279867963571695 6.2400980276077345 0 0 1
9625 878 6 0.034 1.9902108838742387 13.416678687135096 5.0354570051571965 1 0 1
10789 983 3 0.132 24.280650979515013 0.11754307927394542 8.096568627101915 0 1 1
9279 846 1 -0.1 10.884077714224375 16.422079855275864 5.435058100079073 0 0 1
8950 815 4 0.033 16.21074403555025 8.786551419091218 3.424424484623304 0 0 1
21 5 4 0.033 9.121355542663965 11.350100213310121 8.624268405052296 0 0 0
173 16 1 -0.1 16.304588229893394 6.75115993811608 10.028687364811981 0 0 0
13504 0 13 0 6.192 4.46 10.595000000000002 0 0 0
8968 816 4 0.033 14.933895358268671 6.083328144920112 1.7891674395090038 0 0 1
8927 814 1 -0.1 22.24239918501788 3.4491596900537873 5.3055036584444135 0 0 1
1863 173 4 0.033 20.762725607671396 0.6675041959439316 11.700080397420745 0 1 0
596 56 8 -0.468 14.05430027106431 12.594945177311235 8.046496251827183 0 0 0
8934 814 4 0.033 22.512251618786525 5.78057079096372 6.872006963458084 0 0 1
100 13 6 0.034 21.51558619271838 9.487788043842073 8.789926926986576 0 0 0
13404 0 14 0 6.545999999999999 3.6920000000000006 0.758 0 0 0
101 13 6 0.034 19.998541154966013 8.76564077182457 8.482124576390774 0 0 0
14426 0 16 0 17.862 15.486 5.744 0 0 0
9413 856 1 -0.1 15.173744078961688 16.299126258749535 1.489264937746776 0 0 1
13501 0 13 0 10.841999990474314 12.193 9.535 0 0 0
8966 816 4 0.033 15.291697085840207 4.28842768652772 1.9043760468487374 0 0 1
601 56 5 0.068 12.704815406029386 14.895628751967847 8.860241488020273 0 0 0
13408 0 14 0 14.332 5.189 1.5980000000000003 0 0 0
265 25 10 -0.8 15.187104896176539 1.1138186992621262 10.579993986333326 0 0 0
8935 815 8 -0.468 13.105967702075244 8.872066265620044 5.963383948062796 0 0 1
8923 814 1 -0.1 22.95986789320959 5.5954639375312585 4.166061645778125 0 0 1
22 5 1 -0.1 9.053681769784173 8.810297879746553 10.828409845373296 0 0 0
9372 854 4 0.033 18.372007655971025 13.000371852635803 5.737264333316364 0 0 1
9364 854 4 0.033 21.241551204010015 11.951472575465267 4.378534609251991 0 0 1
8916 814 7 0.791 21.90622896021667 4.84796146162387 5.007014683238405 0 0 1
8893 813 8 -0.468 18.484954584362484 11.450146770119028 1.006980208729998 0 0 1
110 13 1 -0.1 18.79449967629022 9.534632139314217 11.261844646170072 0 0 0
13407 0 14 0 14.051999999999998 13.119999999999997 5.378 0 0 0
8873 808 5 0.068 6.8542320120149345 6.971822326777668 0.012932146781539977 0 0 1
14001 0 16 0 10.565999990474314 14.132 8.224 0 0 0
3962 362 10 -0.8 9.583646841339826 10.25192855825828 5.86129231845705 0 1 0
10575 965 4 0.033 11.000055042702327 3.028052641069655 0.5734695515900432 0 1 1
14024 0 16 0 7.621 15.316 7.707000000000002 0 0 0
13904 0 13 0 5.02 4.016 0.609 0 0 0
9269 846 2 -0.131 9.01640064700783 15.541796652009905 3.835675256458016 0 0 1
10574 965 1 -0.1 10.622566396924578 2.0918966379925865 0.13882541636632437 0 1 1
14906 0 15 0 20.364 5.755 4.613 0 0 0
1769 165 5 0.068 10.326541522657845 2.669031550738671 9.85490623025083 0 1 0
1855 173 7 0.791 19.587643476095465 0.4217042669491467 9.951243440880859 0 1 0
14422 0 16 0 10.003999990474313 13.215 3.3780000000000006 0 0 0
527 48 4 0.033 7.174965919145638 15.179587589633195 10.883386493592324 0 0 0
8917 814 2 -0.131 20.57171197030939 4.80841259101479 4.336596459860614 0 0 1
9270 846 5 0.068 9.608496501970409 16.08823685134156 3.11574047912167 0 0 1
14004 0 16 0 7.710999999999997 3.3810000000000007 12.215 0 0 0
9370 854 4 0.033 20.4796544982039 14.798562736364499 3.431636331619072 0 0 1
8812 805 6 0.034 12.095568964700576 10.010359882042895 1.651067542442324 0 0 1
7833 713 10 -0.8 15.139426615195019 9.308562732845116 0.4539352263175437 1 0 1
8928 814 4 0.033 21.564073532285615 3.0560772287813505 6.0756735233358095 0 0 1
169 16 1 -0.1 14.12578298821118 5.582641643232238 10.147397947254206 0 0 0
14585 0 15 0 20.111 0.978 9.771 0 0 0
86 8 4 0.033 5.859355482596959 5.995855411164807 8.275347164581843 0 0 0