LAMMPS data file via write_data, version 29 Sep 2021, timestep = 5000000

11000 atoms
10 atom types
10000 bonds
8 bond types
18500 angles
13 angle types
24000 dihedrals
10 dihedral types

0 51.0189 xlo xhi
0 51.0189 ylo yhi
0 51.0189 zlo zhi

Masses

1 12.01
2 12.01
3 12.01
4 1.008
5 1.008
6 1.008
7 14.01
8 16
9 1.008
10 35.45

Bond Coeffs # harmonic

1 340 1.099
2 490 1.498
3 490 1.516
4 340 1.0805
5 317 1.521
6 340 1.085
7 450 1.395
8 553 0.949

Angle Coeffs # harmonic

1 35 110.01
2 35 108.9
3 51.8 110.2
4 35 106.4
5 70 116.6
6 35 108.3
7 80 109.6
8 35 109.3
9 35 111.6
10 35 110.9
11 35 108.73
12 35 108.6
13 35 107.4

Dihedral Coeffs # opls

1 0.1 0.55 0.65 0
2 0 0 0.825 0
3 0 0 0.94 0
4 0 1 0.7 0
5 -6 -5 3.2 0
6 -0.5 -2.5 0.25 0
7 -6 -7 0.75 0
8 6 -3 2 0
9 -0.356 -0.174 0.35 0
10 -3 1 -2 0

Atoms # full

337 17 8 -0.468 7.50873787139486 0.8600601453084555 4.61022990360022 -1 0 3
9794 467 6 0.034 4.5479089528490775 4.0266110415083425 8.447372784628538 3 -1 -1
3363 161 7 0.791 7.743116735741795 5.369164058632825 10.258271874567738 1 -2 2
3368 161 6 0.034 6.189815776088139 7.786721175529399 10.898875580994742 1 -2 2
342 17 5 0.068 8.219076063101186 2.8534762385140553 5.321882607357459 -1 0 3
345 17 6 0.034 9.387943273280511 1.2215372948085739 4.144575345981168 -1 0 3
3367 161 3 0.132 6.532934050184726 7.7735939296072045 9.869641651518625 1 -2 2
343 17 3 0.132 8.401169237062138 1.5161101440515077 3.802919486929692 -1 0 3
350 17 1 -0.1 10.706147830124104 3.305065969816181 4.528181292547655 -1 0 3
1184 57 6 0.034 11.966613522114159 2.582924491687869 0.8575580181240128 2 2 -3
353 17 4 0.033 10.43006218104098 3.0929863661430645 5.57058231107237 -1 0 3
352 17 4 0.033 10.835383131087065 2.269034189224579 4.18505264589647 -1 0 3
9790 467 2 -0.131 3.2696795748589316 2.9082093432453613 7.124427397327666 3 -1 -1
9787 467 8 -0.468 2.600662144413282 3.672739000541686 9.348402595818504 3 -1 -1
9806 467 4 0.033 5.821023640142982 4.1203670972662145 6.937194133587412 3 -1 -1
9793 467 3 0.132 3.4851719283356113 3.9870915368985784 8.232307871798033 3 -1 -1
9791 467 5 0.068 3.2063163460339763 1.9728966148268783 7.66169397836314 3 -1 -1
3366 161 5 0.068 6.944333158336155 6.284917500904236 8.535587065788434 1 -2 2
9792 467 5 0.068 2.372198169791463 3.1990004579504445 6.597694216810674 3 -1 -1
7517 358 4 0.033 11.520862420292742 0.19769660967098174 10.034990664085639 3 -2 7
9795 467 6 0.034 3.559345797618071 4.853770067501686 7.5837775627579935 3 -1 -1
3364 161 2 -0.131 6.735748406276248 6.279427479096429 9.595748322379212 1 -2 2
9788 467 9 0.275 3.0265975633481514 3.5752894232559442 10.19082976024202 3 -1 -1
3365 161 5 0.068 5.734929284818834 5.872778144376324 9.617596535328785 1 -2 2
3371 161 4 0.033 7.41099371352445 6.435799530053313 11.966227515133419 1 -2 2
9796 467 1 -0.1 3.917078590468129 3.5100633364379488 4.829856159197747 3 -1 -1
9800 467 1 -0.1 4.209672278725649 1.3413752500387823 5.479314554338054 3 -1 -1
9804 467 1 -0.1 5.632751352755706 3.080633257395137 6.635022179063951 3 -1 -1
9789 467 7 0.791 4.349843340612485 2.6965972855245415 6.032370339206053 3 -1 -1
4345 207 4 0.033 9.07819095836494 9.467976806846993 11.21979656818409 1 -2 1
9801 467 4 0.033 4.4697473740748155 0.6825706265625171 6.3196349326426695 3 -1 -1
3370 161 1 -0.1 7.581833572658532 5.372856421550275 11.745396339474516 1 -2 2
9797 467 4 0.033 4.539063420508262 3.5296309098330583 3.924012433419166 3 -1 -1
9798 467 4 0.033 3.807869148904152 4.580245678460148 5.054765104299984 3 -1 -1
9807 467 4 0.033 6.358800689192589 2.828846042227579 5.84936543063635 3 -1 -1
3380 161 4 0.033 7.194462687378531 4.097451276921497 8.758285309325338 1 -2 2
3373 161 4 0.033 6.622590874742802 4.907197442691826 12.011509309818832 1 -2 2
5947 284 2 -0.131 0.090354336281932 9.814449593666904 9.241657567536334 1 2 -2
9802 467 4 0.033 4.957487305587136 1.0855935095439848 4.7156724281149165 3 -1 -1
3378 161 1 -0.1 7.477080652686803 3.94666001590142 9.809565281846975 1 -2 2
1587 76 4 0.033 4.558370813501974 2.8914397218591796 10.458820357691428 1 -2 3
9799 467 4 0.033 2.92570259421459 3.136817904572646 4.537174827239788 3 -1 -1
9805 467 4 0.033 5.854613743013895 2.581548886867474 7.588695527915783 3 -1 -1
3381 161 4 0.033 6.779497671733341 3.3835761784743696 10.445265849829253 1 -2 2
9803 467 4 0.033 3.2629878142954536 1.091568587259498 4.980129189785413 3 -1 -1
3379 161 4 0.033 8.39931446228326 3.3510824480074515 9.860290868439524 1 -2 2
3307 158 1 -0.1 8.995281115589597 14.993413952926565 0.487053454439169 2 1 0
355 17 4 0.033 9.412223231501002 4.920263948958408 5.913613373346175 -1 0 3
10223 487 4 0.033 14.308476690174356 18.852809862031002 2.9291724731913025 5 5 -1
5199 248 4 0.033 16.576806508671098 5.4123685746907375 5.228537719926018 3 -1 2
1586 76 4 0.033 5.803939031468536 1.591147534065327 10.317658746764456 1 -2 3
2367 113 4 0.033 11.462731155847818 0.8673063625437856 6.235240266565567 -4 1 -2
5622 268 4 0.033 2.3833182993622226 10.855340473651514 0.9922952586071033 0 3 0
1585 76 1 -0.1 4.755711389006973 1.8150758968652516 10.56030183768499 1 -2 3
3369 161 6 0.034 7.50305527029977 8.242232038708845 9.741314058490504 1 -2 2
1578 76 7 0.791 4.8542954037620785 1.132356005733622 11.880576916651979 1 -2 3
1087 52 4 0.033 7.194813993750316 7.48851632599787 3.991026323987898 0 2 0
368 18 4 0.033 16.91164644674707 20.95468452265984 3.771313263441892 2 -2 3
1077 52 5 0.068 5.623671281450277 7.316970206335409 1.5492331980166032 0 2 0
1086 52 4 0.033 7.071939349392215 8.802647504531707 2.777119343211297 0 2 0
4603 220 2 -0.131 13.590318138780397 9.899150207626755 0.04945881240885984 -3 0 -1
3372 161 4 0.033 8.451013078922411 4.898144000418007 12.221816280964903 1 -2 2
1085 52 1 -0.1 6.655405016223685 8.404804677175445 3.713079391423519 0 2 0
1076 52 5 0.068 5.4863780620884945 6.0663346968106255 2.713637700856868 0 2 0
7281 347 4 0.033 3.7994116519225787 24.87478421124569 2.2348455909843525 0 1 0
3376 161 4 0.033 9.890868580090325 5.165369436956096 10.262805749298884 1 -2 2
2983 143 8 -0.468 1.4289147301115193 7.152389450141697 4.542833003629606 -1 1 0
4695 224 4 0.033 2.2253043552688854 21.411382814211827 9.719034974685261 -3 -2 -1
2856 136 4 0.033 0.8898261635225018 15.797052581226048 9.218513634017118 -1 -2 2
10091 481 4 0.033 9.291241932762992 23.787460083772256 7.045759601321421 0 0 -2
10088 481 6 0.034 5.357796284924351 25.50424373938732 6.344875118564315 0 0 -2
7331 350 9 0.275 16.46996550700973 11.701270150640742 2.607092567334632 0 -3 -2
3377 161 4 0.033 9.267242456714815 6.773435262663501 10.080153542446672 1 -2 2
10226 487 4 0.033 16.066693193044166 18.82432628291953 0.9778259638937618 5 5 -1
3375 161 4 0.033 9.025457958179386 5.701049576455147 8.728829316567236 1 -2 2
3374 161 1 -0.1 9.051856494318075 5.725847247964233 9.82723232705289 1 -2 2
4900 234 3 0.132 2.541969930300493 2.0216550433354965 0.0308749249834199 -1 0 2
7338 350 6 0.034 16.18889938832897 12.61974193585971 0.8803015880600019 0 -3 -2
1582 76 3 0.132 2.493371931782079 0.23127767490808357 12.456466354996923 1 -2 3
9287 443 5 0.068 16.687931416935687 3.7836922931827406 8.518247585633558 7 -2 -1
340 17 2 -0.131 8.274062854168694 3.0057625828825936 4.253582299363827 -1 0 3
344 17 6 0.034 8.385807734934609 1.2186695010764994 2.759598801028674 -1 0 3
10607 607 10 -0.8 2.6893367648782536 5.485812737694756 11.192359175048084 5 1 -6
4766 227 4 0.033 4.434535133630881 13.042485261945838 10.90304954238164 1 -3 4
4691 224 6 0.034 0.8687945863893171 20.730853762421333 12.33721233382697 -3 -2 -1
341 17 5 0.068 7.378157538919215 3.4440124553201104 3.837925169758374 -1 0 3
339 17 7 0.791 9.478408559355072 3.9247559641255365 3.9741745530285786 -1 0 3
348 17 4 0.033 8.629755131370079 4.785803147170988 2.0189883332713388 -1 0 3
357 17 4 0.033 10.117954023130004 5.773033131337063 4.464575016668485 -1 0 3
4692 224 6 0.034 2.188916608389394 20.59818392559359 11.316032734064297 -3 -2 -1
346 17 1 -0.1 9.490860745486664 4.317691923378236 2.5161498969372635 -1 0 3
347 17 4 0.033 10.222894066085672 5.123139103079971 2.3638905665637395 -1 0 3
349 17 4 0.033 9.729819204698147 3.4206882598991357 1.9278608141271494 -1 0 3
351 17 4 0.033 11.511547753351287 4.048873880222945 4.451489010238975 -1 0 3
1178 57 9 0.275 13.755589398255921 0.7726046047648887 0.29271810227568956 2 2 -3
10991 991 10 -0.8 9.872098372030267 3.4724294755642573 8.166020016838086 2 5 7
7505 358 6 0.034 10.152454007427105 3.3880929115717553 11.629256365418312 3 -2 7
356 17 4 0.033 8.336528895173215 5.52066196334768 4.67680471951091 -1 0 3
354 17 1 -0.1 9.336798402278578 5.092228560541125 4.83077443986563 -1 0 3
2727 130 1 -0.1 9.584422356173228 25.232126567453008 1.1234790247837962 1 4 -1
7506 358 6 0.034 9.271659873449792 1.9247222576714735 11.653345555675113 3 -2 7
7513 358 4 0.033 12.350779467452002 2.985850223272905 11.186543682955508 3 -2 7
7500 358 7 0.791 11.81903971133104 1.1417877085422163 12.029815538162898 3 -2 7
4696 224 4 0.033 2.870800285183299 23.090361427126187 9.347070976145748 -3 -2 -1
4764 227 1 -0.1 3.924648564522778 13.70492917528694 11.616481149298721 1 -3 4
7404 353 4 0.033 14.871521799541195 5.841286595771618 8.74088389374035 -1 3 2
7399 353 3 0.132 12.792870177923794 5.926029346201102 10.437022317539993 -1 3 2
7401 353 6 0.034 13.20399914895594 6.926118715603742 10.34747596349329 -1 3 2
7405 353 4 0.033 14.980280435908293 5.187201501194972 7.0508319603973515 -1 3 2
7396 353 2 -0.131 12.144347957215032 5.73289691082201 9.095779163864087 -1 3 2
7397 353 5 0.068 11.90442599784212 4.679572038239745 9.075178663548469 -1 3 2
7402 353 1 -0.1 14.391786160736043 5.21145506775863 7.978672015931369 -1 3 2
7395 353 7 0.791 13.028815841897943 5.886994724791896 7.799568268351667 -1 3 2
7515 358 1 -0.1 10.980439166884263 0.6894271913079891 10.855931935001829 3 -2 7
7511 358 1 -0.1 12.902387955537646 2.090661575313122 11.506178406046494 3 -2 7
7398 353 5 0.068 11.314939357865352 6.424876265984828 9.068834632641718 -1 3 2
4619 220 4 0.033 14.311460757790076 7.370098466574398 1.012196863113795 -3 0 -1
7518 358 4 0.033 10.452472243935238 1.5715937476754243 10.467558397214699 3 -2 7
7409 353 4 0.033 13.555655701944048 8.028233577530314 7.868608654215915 -1 3 2
7408 353 4 0.033 13.300222552729156 7.355256061637627 6.273210899097249 -1 3 2
7406 353 1 -0.1 12.965250708523174 7.282973539019366 7.3174187800081745 -1 3 2
2842 136 3 0.132 0.3988657751127975 18.295013988304987 10.635616452358358 -1 -2 2
1706 82 5 0.068 14.942873846355187 11.792827834044889 11.669146208829417 -4 2 4
10573 573 10 -0.8 15.050220334366283 9.185119576359638 3.1813530114539073 4 5 4
5204 248 4 0.033 15.781254578400564 3.59895377191623 5.4077571922405605 3 -1 2
5191 248 2 -0.131 16.84298627394027 3.919711510095265 2.1771389500177007 3 -1 2
5196 248 6 0.034 15.191390714427076 3.5013501894209114 0.7225152171929596 3 -1 2
5190 248 7 0.791 16.126007000307183 4.350687605018424 3.492498051359368 3 -1 2
10759 759 10 -0.8 14.15689449909777 1.8196764870854552 7.769681696511547 4 -6 -4
1593 76 1 -0.1 5.7190950089027 2.1457234456294874 12.457075703518598 1 -2 3
5201 248 1 -0.1 16.027122011873004 3.239640809397064 4.398676256454008 3 -1 2
5205 248 1 -0.1 14.759586973119198 4.783406618445723 3.234385703068417 3 -1 2
5207 248 4 0.033 14.318683654655924 4.790315017607558 4.24104230771531 3 -1 2
5203 248 4 0.033 15.247422218145141 2.592215436471351 3.9735767829870956 3 -1 2
5194 248 3 0.132 16.12174430855651 3.130925967193658 1.14019096127937 3 -1 2
5195 248 6 0.034 15.874021079122823 2.196014766368782 1.631921297829637 3 -1 2
7393 353 8 -0.468 11.80727926790522 5.874096421438027 11.318788566396167 -1 3 2
5208 248 4 0.033 14.421471505325101 3.962010731038812 2.5872476260665027 3 -1 2
4737 226 4 0.033 9.511435485411807 25.400554179717428 11.050359249350228 -2 -3 3
10240 488 4 0.033 13.74184288287859 21.1397360515259 10.92818023467744 1 -1 3
2989 143 3 0.132 0.9200529477564399 6.165042486626714 3.6972651286207556 -1 1 0
10207 487 8 -0.468 16.76751610370777 22.92007302388821 0.6081441047540558 5 5 -1
7407 353 4 0.033 11.96718393987751 7.736783763048785 7.2417889502039134 -1 3 2
7412 353 4 0.033 11.390268176948824 5.30724736203665 6.52782934683376 -1 3 2
7410 353 1 -0.1 12.47249525853128 5.14558170608752 6.6300530077773585 -1 3 2
7413 353 4 0.033 12.542111552470063 4.104528725156834 6.975253158454699 -1 3 2
7411 353 4 0.033 12.7794701396011 5.3561122690189995 5.596010446020139 -1 3 2
7514 358 4 0.033 13.554989689112555 1.5461047681084976 10.809493505293945 3 -2 7
1711 82 1 -0.1 16.32184886671525 14.148368676568099 11.865617669488245 -4 2 4
5206 248 4 0.033 14.79033057193551 5.763599437660687 2.7383234095510964 3 -1 2
2843 136 6 0.034 0.41265292985844754 17.222285416433728 10.797753118770519 -1 -2 2
7512 358 4 0.033 13.481336638023897 2.3144110004710874 12.413126883306862 3 -2 7
10824 824 10 -0.8 0.11568793084787654 3.47968653022742 6.813107225054108 -1 2 5
5623 268 4 0.033 0.9353645023623961 11.872828315644282 0.418097593609175 0 3 0
10224 487 1 -0.1 15.078705544871221 18.9633150346461 0.5169967959271337 5 5 -1
8906 425 9 0.275 13.963997753434011 22.785484244264183 10.943404761611442 0 -3 -1
5957 284 1 -0.1 1.834617365051927 8.447120348537231 8.159640224940826 1 2 -2
3309 158 4 0.033 8.195381215585114 15.15799011169327 1.222496035685084 2 1 0
10898 898 10 -0.8 8.651605798254115 11.171868942690587 7.55900537126229 -1 -2 -2
1583 76 6 0.034 2.155688150258854 0.18612037416880406 11.426342402907311 1 -2 3
3362 161 9 0.275 4.598396742447312 7.740296132242954 9.389466435281758 1 -2 2
3361 161 8 -0.468 5.443221721480103 8.041385107437346 9.079278656873386 1 -2 2
5958 284 4 0.033 2.8254060738496753 8.055262889259076 7.890222043325331 1 2 -2
338 17 9 0.275 7.079828975921821 0.1031699648765163 4.231079184623714 -1 0 3
5962 284 4 0.033 2.328286388510977 9.283971340308462 11.429256634154427 1 2 -2
4894 234 8 -0.468 1.2458471943794107 1.5550110000018822 0.42406607516270167 -1 0 2
3299 158 9 0.275 7.430272547173667 19.580132821873416 0.2805536683697807 2 1 0
4751 227 5 0.068 6.088449660492045 14.777678707514232 10.970655423028374 1 -3 4
4752 227 5 0.068 5.794169592935628 15.01474958139615 12.627645732526215 1 -3 4
4749 227 7 0.791 4.130519240369382 15.16464198817873 11.453957895444544 1 -3 4
2357 113 5 0.068 12.155690884895126 0.5609321232434535 3.7788373558393444 -4 1 -2
8347 398 1 -0.1 1.0609315933398629 13.691155966307972 2.755621990698932 0 -2 -2
8350 398 4 0.033 0.22320813850013568 14.013687999935385 2.1215924294844655 0 -2 -2
8342 398 5 0.068 3.045257768692535 14.443787987811179 4.74238637031098 0 -2 -2
1075 52 2 -0.131 4.990631450095236 6.953082773821517 2.345679515795304 0 2 0
1080 52 6 0.034 2.958207577289856 7.397109527800289 1.950500472554014 0 2 0
8349 398 4 0.033 1.831232533909718 13.113232281351106 2.226055031842477 0 -2 -2
1074 52 7 0.791 5.136810085759514 8.008959097986885 3.5248532306136484 0 2 0
1082 52 4 0.033 4.813294619014225 9.998904273470282 3.9924828567784467 0 2 0
1083 52 4 0.033 3.5598982955624776 8.925814943810856 2.9366679483209532 0 2 0
1084 52 4 0.033 5.116438057985155 9.768415130273343 2.3431610183493286 0 2 0
1081 52 1 -0.1 4.561830868917583 9.310069766723817 3.1739024514707403 0 2 0
8348 398 4 0.033 0.6074698007826029 13.092700852374806 3.5581334519234447 0 -2 -2
1078 52 3 0.132 3.5824863418238593 6.543688495108048 2.193756205028837 0 2 0
1079 52 6 0.034 2.9299477115451764 6.092752497965613 2.934077108392323 0 2 0
1091 52 4 0.033 4.704040103414942 8.247656343852459 5.55710469405615 0 2 0
1089 52 1 -0.1 4.6322896404454745 7.503046871491071 4.751990068366286 0 2 0
1090 52 4 0.033 3.5555522583797323 7.287591086794777 4.70708914605189 0 2 0
2272 109 2 -0.131 16.805575230128174 9.95042186995394 6.735876759650759 -2 -3 2
1088 52 4 0.033 6.771898534163564 9.094806499350337 4.560503370549263 0 2 0
1092 52 4 0.033 5.142547224582362 6.557205564077717 4.981820620708251 0 2 0
8340 398 7 0.791 1.835619280870043 14.92482697240292 2.970744893822561 0 -2 -2
8355 398 1 -0.1 0.9083901311769949 15.778867555634571 3.814763606084986 0 -2 -2
8356 398 4 0.033 0.8183080949681525 15.170985095062944 4.725897555760447 0 -2 -2
3304 158 3 0.132 7.588530492702348 17.659977813321948 0.07243481026520485 2 1 0
4750 227 2 -0.131 5.592860961070711 15.447700858609275 11.658363401212657 1 -3 4
1416 68 6 0.034 11.159246751034713 14.880227655378023 8.705369806418892 1 -1 0
10225 487 4 0.033 14.62076891502919 17.96809820454755 0.6043952750077778 5 5 -1
1072 52 8 -0.468 3.4447044291226208 5.820450560700252 0.9838753203856371 0 2 0
7280 347 1 -0.1 2.955054041083746 25.462146343668334 2.6219718547402135 0 1 0
10145 484 9 0.275 5.441019020900501 21.333681658174182 4.800451695138487 0 0 0
5960 284 4 0.033 1.1492979478849519 7.605016651570524 8.329932691735266 1 2 -2
8339 398 9 0.275 6.2090567945342565 14.229584537636406 3.694022084229425 0 -2 -2
8341 398 2 -0.131 3.1391819638093037 14.742518434631979 3.708259402453478 0 -2 -2
3306 158 6 0.034 8.283320655470915 17.692506451705093 0.9051612651598467 2 1 0
8344 398 3 0.132 4.2700361131299545 13.95947734930662 2.9819220362939847 0 -2 -2
8345 398 6 0.034 4.1150807827548235 12.9363814629542 2.6555963528964055 0 -2 -2
8338 398 8 -0.468 5.35888862207948 13.875754259807954 3.923410761881695 0 -2 -2
8346 398 6 0.034 4.446709888490385 14.58436208296429 2.112709574039488 0 -2 -2
1418 68 4 0.033 10.863872760561602 17.86049233374217 11.684724858025492 1 -1 0
5624 268 4 0.033 2.604517581733526 12.561960821891303 0.8510607921188925 0 3 0
2269 109 8 -0.468 14.467067623889271 10.073002569384634 7.541457232104099 -2 -3 2
5959 284 4 0.033 1.6371799051184701 8.940978565320385 7.197910933004718 1 2 -2
2459 118 9 0.275 8.449633967902649 10.044976018357152 3.077681542960272 4 5 1
2458 118 8 -0.468 8.480476729652821 10.588887385209917 3.8547337076395003 4 5 1
2464 118 3 0.132 9.77328746753668 10.997094721274324 4.066139304828903 4 5 1
2466 118 6 0.034 9.587065991421207 11.500642482284027 5.008999941573199 4 5 1
2465 118 6 0.034 10.466376862249247 10.171563626336185 4.190036090844829 4 5 1
10222 487 4 0.033 15.947056268298716 19.48127991530467 2.482292157525834 5 5 -1
1413 68 5 0.068 11.78787198576377 13.779372493944186 10.53188447386711 1 -1 0
5964 284 4 0.033 1.0007354581167156 8.270251904643978 10.9271180216385 1 2 -2
4753 227 3 0.132 6.088991655645025 16.860257867238534 11.569486618771162 1 -3 4
4755 227 6 0.034 5.730067095704332 17.41448139737027 12.430436328563763 1 -3 4
1411 68 2 -0.131 11.103006660477073 14.5923755497649 10.725444893644582 1 -1 0
8358 398 4 0.033 1.1879076817047158 16.84143708534754 3.839597515562193 0 -2 -2
4747 227 8 -0.468 7.504362440089072 16.78303236139118 11.578245814184498 1 -3 4
4754 227 6 0.034 5.706952661878741 17.27414262132951 10.642140673932328 1 -3 4
8343 398 5 0.068 3.4227442924591815 15.762566538050327 3.924070309323273 0 -2 -2
8354 398 4 0.033 2.711892495783175 14.902634770415712 1.0927640419670566 0 -2 -2
8351 398 1 -0.1 1.996315123275 15.521329827224694 1.6521979393985868 0 -2 -2
8353 398 4 0.033 1.0792428605746809 15.423663129141287 1.0545018040476932 0 -2 -2
7282 347 4 0.033 2.0026139925782407 25.32637910665845 2.0907222822032696 0 1 0
8352 398 4 0.033 2.2189784228070764 16.596792355506064 1.6922279272409926 0 -2 -2
5946 284 7 0.791 1.5839054654880949 9.325612171733653 9.301717758231142 1 2 -2
1419 68 4 0.033 9.572463732504394 16.616702012269737 11.81941491939859 1 -1 0
490 24 3 0.132 16.616004508191303 13.591469790736602 4.644885037168432 3 -1 0
4758 227 4 0.033 2.535279920442853 15.445407281479023 10.09528974896348 1 -3 4
7400 353 6 0.034 13.65801622225962 5.282325842796547 10.556993137278113 -1 3 2
7403 353 4 0.033 14.156611153429326 4.198010664876918 8.332824686295513 -1 3 2
4618 220 4 0.033 13.038780920455665 7.753559415494334 2.0052744303075727 -3 0 -1
4617 220 1 -0.1 13.218748161870467 7.4740957021132965 0.9577474474485766 -3 0 -1
10854 854 10 -0.8 7.316055736318076 8.559970314139292 6.88754875137379 -2 -3 0
4615 220 4 0.033 10.860163933263205 9.230417814807687 0.0894281244477183 -3 0 -1
1425 68 1 -0.1 12.15371415727931 15.627425708687051 12.642848966196624 1 -1 0
10537 537 10 -0.8 9.82104644525912 20.661853969798827 0.5990131762317676 -2 4 -3
10634 634 10 -0.8 13.436889112659506 14.5178531008086 6.869591802768786 -1 0 -2
2473 118 4 0.033 12.315005497376118 14.161036657940173 4.527154277154082 4 5 1
1704 82 7 0.791 16.586720374580587 12.877937918278135 12.570179654879901 -4 2 4
2478 118 4 0.033 13.161825041028358 13.143020052038795 1.9577023837533225 4 5 1
1428 68 4 0.033 12.70979297490096 14.679636245491665 12.62634217554787 1 -1 0
10972 972 10 -0.8 12.109989521192498 16.65030063737935 3.3688518853333456 2 2 0
1422 68 4 0.033 13.2090767790479 17.215741042827336 10.63515838083635 1 -1 0
8912 425 6 0.034 14.63559952687565 24.05794711652787 9.383342512220956 0 -3 -1
4895 234 9 0.275 0.6688186911216935 2.283006075506041 0.6181337697607062 -1 0 2
5202 248 4 0.033 16.921951090321137 2.6049534876600005 4.333454241777587 3 -1 2
1410 68 7 0.791 11.584252763370221 15.893241955582372 11.25204210838304 1 -1 0
1423 68 4 0.033 12.371525184303543 16.24258224617864 9.262180729511073 1 -1 0
2474 118 4 0.033 10.738974782285915 13.447384691762394 5.0393116072984565 4 5 1
1421 68 1 -0.1 12.63163066289214 16.333221022938318 10.326102993072125 1 -1 0
2368 113 4 0.033 13.038636446523737 1.3533376501707184 5.862510678467782 -4 1 -2
4605 220 5 0.068 13.237150659715336 10.21332894011195 1.0210784312512364 -3 0 -1
7504 358 3 0.132 9.72921742212196 2.6570904128377033 12.310234406982131 3 -2 7
2730 130 4 0.033 9.090842859633947 24.26299369930003 0.9654865300110061 1 4 -1
2463 118 5 0.068 9.375547749771684 12.783623408900235 3.089970788879435 4 5 1
2461 118 2 -0.131 10.076406450937359 11.962127787961728 3.052257972846554 4 5 1
2462 118 5 0.068 10.054548949725264 11.519013552627761 2.067041288056703 4 5 1
2475 118 1 -0.1 12.068281551425509 13.04225202728224 2.000239395365657 4 5 1
2477 118 4 0.033 11.742272300446084 12.495898262287994 1.104127676967149 4 5 1
2476 118 4 0.033 11.504700459786527 13.977955667671749 1.8792604639359722 4 5 1
2468 118 4 0.033 13.398742808769315 11.952245558073555 4.003023372839056 4 5 1
2470 118 4 0.033 11.973676005945915 11.187398652608465 4.6809454766312 4 5 1
2469 118 4 0.033 12.953510322877175 10.758296116452481 3.154436102327941 4 5 1
2460 118 7 0.791 11.532405673655369 12.541359908161459 3.23424159555496 4 5 1
2467 118 1 -0.1 12.422191339273963 11.52463476829456 3.7360081582378735 4 5 1
2471 118 1 -0.1 11.37172042509343 13.715362461628331 4.181627657421927 4 5 1
4346 207 4 0.033 10.462969364594459 9.704003256026171 12.231341926655993 1 -2 1
2369 113 4 0.033 12.67773596684867 0.37346162860716225 7.3411672184488825 -4 1 -2
1420 68 4 0.033 9.817164788964227 17.059579726475235 10.42046067820026 1 -1 0
1580 76 5 0.068 3.0775499249760183 2.1734916044210317 12.714809775853965 1 -2 3
2991 143 6 0.034 1.3532965427902834 6.367372298459584 2.723310545369616 -1 1 0
2275 109 3 0.132 15.518402460288664 9.238581824070751 7.340211068768832 -2 -3 2
488 24 5 0.068 16.287051408423107 14.452082868067862 6.4891470573870444 3 -1 0
2472 118 4 0.033 10.849830815095324 14.497410904135602 3.612564887104955 4 5 1
10232 488 5 0.068 13.117128350987253 18.023657587029266 12.64273777363372 1 -1 3
4767 227 4 0.033 2.874279350020936 13.592698207059348 11.919679490873826 1 -3 4
10554 554 10 -0.8 13.24596961023393 10.64369797597284 10.096679850600832 6 3 1
3310 158 4 0.033 9.692193465615324 15.783974146032714 0.7987075133583696 2 1 0
4344 207 1 -0.1 9.578211174615914 10.225223004349532 11.839763237385716 1 -2 1
10215 487 6 0.034 16.92871516842116 20.973243448377705 0.1056872138534746 5 5 -1
1424 68 4 0.033 13.292685452187287 15.493891379578505 10.583655112121514 1 -1 0
2725 130 4 0.033 9.809626108607395 23.45226284447419 2.9619461099931335 1 4 -1
2990 143 6 0.034 1.338061229596906 5.16690415756175 3.776093485512574 -1 1 0
4340 207 1 -0.1 7.1608121980436845 10.738139782231734 12.373493324451301 1 -2 1
2285 109 4 0.033 16.745403715292312 7.585751543691419 5.235690782269795 -2 -3 2
1714 82 4 0.033 16.247115730469567 13.822984513028128 10.818554764610253 -4 2 4
4901 234 6 0.034 3.415917904873069 1.7951714952961437 0.632659819960571 -1 0 2
5200 248 4 0.033 16.748435488495662 6.409510824822452 3.744852531704689 3 -1 2
4735 226 1 -0.1 9.290060524018976 25.309770207229136 12.122997300781147 -2 -3 3
4343 207 4 0.033 7.124039460441485 11.503196350791683 11.585370771804122 1 -2 1
10164 484 4 0.033 11.950187594053013 20.450129352249544 5.079298023418484 0 0 0
4765 227 4 0.033 4.387261197055154 13.35631124471279 12.550427485137702 1 -3 4
1588 76 4 0.033 4.136944919940374 1.0808013202266844 10.025727447992267 1 -2 3
10213 487 3 0.132 16.524204321973176 21.59045355322802 0.9010785448983606 5 5 -1
2845 136 1 -0.1 0.7327823261102572 18.289952108118893 7.418039613491652 -1 -2 2
10211 487 5 0.068 14.415144762535368 22.186604061959187 1.1867684288058442 5 5 -1
1409 68 9 0.275 8.915486325524176 13.366270621246667 8.631273037038806 1 -1 0
5963 284 4 0.033 2.8260045285669357 8.052105697535161 10.360786512991579 1 2 -2
10152 484 6 0.034 7.24000209050489 19.452318051926387 4.973789646026515 0 0 0
10230 488 7 0.791 14.301970641123829 19.677856294169136 12.54710778571253 1 -1 3
1073 52 9 0.275 2.5954341305715856 5.402730989485695 1.0535258557432399 0 2 0
4760 227 1 -0.1 3.308226700150807 15.8244000680436 12.521004478467946 1 -3 4
10144 484 8 -0.468 6.2653574511447845 21.23167918022243 5.259431593663715 0 0 0
1414 68 3 0.132 10.397897114283964 14.57428850562642 9.415280305757204 1 -1 0
4756 227 1 -0.1 3.584795474845607 15.74472497676832 10.224621349518637 1 -3 4
1415 68 6 0.034 9.71823769532393 15.419343076678253 9.381063241268457 1 -1 0
2846 136 4 0.033 1.0726066140848571 17.587325127914493 6.644324293182125 -1 -2 2
2714 130 5 0.068 10.85310552252245 23.059742551335734 1.0710315653902698 1 4 -1
5954 284 4 0.033 3.3833948795957296 10.481215757466845 9.404809028743701 1 2 -2
4694 224 4 0.033 1.2638854265875612 22.425519988144195 8.757545200124635 -3 -2 -1
4700 224 4 0.033 1.9730149000465729 25.021028732644943 10.599356011348332 -3 -2 -1
4342 207 4 0.033 6.810814612423451 9.898489563027018 11.756816661110513 1 -2 1
10149 484 5 0.068 8.52143494471962 21.623687640581434 5.405336075021041 0 0 0
10150 484 3 0.132 7.175833984065123 20.421575009113198 4.490417749278812 0 0 0
2270 109 9 0.275 13.994532694632325 10.287856045792566 6.7470082458160885 -2 -3 2
3305 158 6 0.034 6.665784808843317 17.161523186775984 0.35047809162400184 2 1 0
2847 136 4 0.033 1.6160483153590073 18.570495112098627 8.008748970940472 -1 -2 2
10237 488 1 -0.1 13.520585403686528 20.129064058138038 11.298839254993467 1 -1 3
4757 227 4 0.033 3.718790702546799 16.828112179696 10.351579737316563 1 -3 4
4748 227 9 0.275 7.950200213961131 17.36770811791711 12.17823228751953 1 -3 4
1412 68 5 0.068 10.367722113125058 14.234273306588024 11.431560778645597 1 -1 0
484 24 8 -0.468 15.395236499024348 12.929171582903269 4.7115554284206285 3 -1 0
10092 481 4 0.033 7.602599692554283 23.38171092543292 6.761684745208199 0 0 -2
10090 481 1 -0.1 8.265601613015551 24.012792345946156 7.369932709851288 0 0 -2
9291 443 6 0.034 16.4425021970374 2.5271848591574217 11.33417821755148 7 -2 -1
10523 523 10 -0.8 3.9144933054716846 17.211493422470305 6.419217268420023 3 1 0
4687 224 2 -0.131 1.9493317882049663 22.433898858963403 11.974634115045449 -3 -2 -1
1579 76 2 -0.131 3.5689438409265497 1.2113101455660544 12.700013058153845 1 -2 3
10818 818 10 -0.8 2.2950894534372313 12.722895327728926 6.191452868123897 -6 2 -2
4698 224 4 0.033 0.6575773892216555 24.68299684893409 11.719899870382807 -3 -2 -1
10642 642 10 -0.8 16.81128628605211 7.523122997758775 10.026211281053278 -4 0 -3
10086 481 5 0.068 7.0042663371964995 25.113407338506985 8.844179654605052 0 0 -2
491 24 6 0.034 16.753736943802085 14.585810799332874 4.233132104523361 3 -1 0
10081 481 8 -0.468 4.361377216585609 25.217399361327267 8.360124103539224 0 0 -2
10093 481 4 0.033 8.152093332492491 23.730507540697662 8.425978115936548 0 0 -2
10089 481 6 0.034 5.777107924297102 24.180465274066652 7.136000702554174 0 0 -2
1713 82 4 0.033 15.389992403728742 14.4810270292731 12.343930132557643 -4 2 4
10087 481 3 0.132 5.418682318700053 25.175753247187366 7.377159895838251 0 0 -2
10082 481 9 0.275 4.374068162997416 24.29040203297848 8.562893961909971 0 0 -2
1408 68 8 -0.468 9.834433203184389 13.403836723835513 8.865209537096566 1 -1 0
10083 481 7 0.791 8.099889952996763 25.4546910786589 7.2192559803158405 0 0 -2
5956 284 4 0.033 2.2587811209905855 10.801942101235973 7.959693100988204 1 2 -2
5953 284 1 -0.1 2.355161205843333 10.601625581690946 9.035976094314357 1 2 -2
10872 872 10 -0.8 1.6800884138142749 21.751209267039215 6.000459677379444 2 0 6
9283 443 8 -0.468 14.880819996090867 3.4802724303121875 10.562650428061254 7 -2 -1
4690 224 3 0.132 1.9192689901332185 20.997889667237125 12.288015377945207 -3 -2 -1
2848 136 4 0.033 0.3408486780801798 19.23676863256794 7.020890417940233 -1 -2 2
10239 488 4 0.033 13.68981641898335 19.32281548951812 10.571429568420848 1 -1 3
4759 227 4 0.033 4.27453098868094 15.409744997496118 9.437313379287396 1 -3 4
10243 488 4 0.033 16.048212214595544 20.040071536961488 11.523168151320542 1 -1 3
4686 224 7 0.791 1.1898020066339112 22.887924455355748 10.768926054571086 -3 -2 -1
1596 76 4 0.033 6.796549411147158 2.2506600933052625 12.267653546732769 1 -2 3
4761 227 4 0.033 2.2458204542651496 15.556666033185838 12.434909101626848 1 -3 4
2844 136 6 0.034 1.3985217123657143 18.690153174580495 10.488043556507225 -1 -2 2
4699 224 4 0.033 0.27282178127218204 24.57458070991639 10.014482728259134 -3 -2 -1
5955 284 4 0.033 1.8476179291088086 11.475692037328304 9.467494986564136 1 2 -2
3308 158 4 0.033 9.246530043117998 13.933521041209488 0.6330043340658768 2 1 0
10219 487 4 0.033 12.375397653250385 20.700041227151544 1.5332623238504175 5 5 -1
4347 207 4 0.033 9.830281934909031 10.929740305029693 11.034830710929175 1 -2 1