LAMMPS data file via write_data, version 29 Sep 2021, timestep = 1000000

11000 atoms
10 atom types
10000 bonds
8 bond types
18500 angles
13 angle types
24000 dihedrals
10 dihedral types

0 51.0189 xlo xhi
0 51.0189 ylo yhi
0 51.0189 zlo zhi

Masses

1 12.01
2 12.01
3 12.01
4 1.008
5 1.008
6 1.008
7 14.01
8 16
9 1.008
10 35.45

Bond Coeffs # harmonic

1 340 1.099
2 490 1.498
3 490 1.516
4 340 1.0805
5 317 1.521
6 340 1.085
7 450 1.395
8 553 0.949

Angle Coeffs # harmonic

1 35 110.01
2 35 108.9
3 51.8 110.2
4 35 106.4
5 70 116.6
6 35 108.3
7 80 109.6
8 35 109.3
9 35 111.6
10 35 110.9
11 35 108.73
12 35 108.6
13 35 107.4

Dihedral Coeffs # opls

1 0.1 0.55 0.65 0
2 0 0 0.825 0
3 0 0 0.94 0
4 0 1 0.7 0
5 -6 -5 3.2 0
6 -0.5 -2.5 0.25 0
7 -6 -7 0.75 0
8 6 -3 2 0
9 -0.356 -0.174 0.35 0
10 -3 1 -2 0

Atoms # full

4271 204 6 0.034 1.3728507243920103 4.308234724888113 9.782226503561079 3 -2 -1
4267 204 2 -0.131 2.190929629412817 6.252472536822887 9.942858930449676 3 -2 -1
4270 204 3 0.132 1.9051982920310364 4.827493401331721 10.572290758145144 3 -2 -1
7397 353 5 0.068 8.765574004488956 7.9160663237549675 4.479792174735808 1 1 2
7396 353 2 -0.131 7.946034223680062 7.512084796206485 5.056536266994681 1 1 2
4266 204 7 0.791 3.050950745614098 6.337059629062516 8.638299166293011 3 -2 -1
4272 204 6 0.034 2.9112371088790487 4.463935761597668 10.753775722809051 3 -2 -1
7398 353 5 0.068 7.176603936562558 8.265601658323815 5.1441128283814574 1 1 2
7395 353 7 0.791 8.423950301282451 7.0520084052652345 6.4088512181513915 1 1 2
1716 82 4 0.033 1.395043585457284 2.6390193991716098 4.708838154857002 1 0 0
7399 353 3 0.132 7.21398678930287 6.490723451198061 4.142050062546022 1 1 2
1711 82 1 -0.1 2.672884131364233 0.47510685088971966 4.372838534286822 1 0 0
4269 204 5 0.068 2.737387107297537 6.7446197641629855 10.73447474046115 3 -2 -1
7393 353 8 -0.468 6.7256282919929395 7.199485903842198 3.1486657548406156 1 1 2
7400 353 6 0.034 7.899591696759462 5.75118014202657 3.7417419194046557 1 1 2
7394 353 9 0.275 5.930134479336553 6.732574204579038 2.92554230533536 1 1 2
4268 204 5 0.068 1.2439305112474648 6.765549256244464 9.856688789132633 3 -2 -1
4278 204 4 0.033 2.239474573292514 6.148672950421532 6.586578266263083 3 -2 -1
4280 204 4 0.033 2.199956419175757 4.660408404332819 7.584222696826235 3 -2 -1
4277 204 1 -0.1 2.0893676604520324 5.753699832291131 7.601105346598795 3 -2 -1
4282 204 4 0.033 3.99182568114534 4.471275557027152 8.778124488290034 3 -2 -1
4281 204 1 -0.1 4.265534821603387 5.527137260820162 8.912439113636603 3 -2 -1
4283 204 4 0.033 4.810542781684902 5.709289348787286 9.84923576608434 3 -2 -1
10950 950 10 -0.8 3.018583847747391 2.0454320352615007 8.72223632437907 -1 0 0
4284 204 4 0.033 4.902205291880354 5.493811060054424 8.017262549979227 3 -2 -1
1715 82 1 -0.1 1.5063805444114136 2.3692245984618276 3.6493024591328003 1 0 0
7194 343 4 0.033 7.342877988350283 3.9326924284024933 11.413581965048037 1 0 -1
7340 350 4 0.033 25.392027136706776 11.69036223328263 9.061392314275704 0 0 -1
7197 343 4 0.033 7.528363780351837 1.9068125488137688 8.249146538225814 1 0 -1
8049 384 5 0.068 5.795753332545229 1.1364714113075685 2.4558173837158113 1 2 2
4273 204 1 -0.1 3.4752930647875377 7.720332130391151 8.326509368209415 3 -2 -1
4275 204 4 0.033 2.6881081203763144 8.394366256736177 7.960696762108604 3 -2 -1
2109 101 6 0.034 0.4925007219821483 9.426594044255525 11.197569388799737 -1 1 0
8048 384 5 0.068 6.593845948850822 0.7678560645500255 1.0138128454155606 1 2 2
3798 181 1 -0.1 9.293548628582478 15.018723492506215 11.792540492722871 -1 1 0
7401 353 6 0.034 6.5215978558364665 5.929308724743969 4.760625905917508 1 1 2
7413 353 4 0.033 6.791736742702516 5.72418022306821 7.0321804983560545 1 1 2
1704 82 7 0.791 1.4564392796110812 0.8525408893729224 3.6151854103602297 1 0 0
1718 82 4 0.033 2.436365002388777 2.7458434442856747 3.2008738297685446 1 0 0
8066 385 9 0.275 22.394723642480333 15.679604993352049 3.878623035549419 0 -1 2
584 28 4 0.033 1.3824968024992714 14.735606624555912 0.8908523097452477 1 1 0
3020 144 4 0.033 2.207884339407649 3.9265145558404164 0.2876036595424041 1 0 1
4107 196 4 0.033 11.09252835759119 12.907085773034058 0.9706547218600212 1 -2 0
8047 384 2 -0.131 6.7622924834978955 0.8342868681533674 2.0790325276718837 1 2 2
5805 277 6 0.034 17.389851861965763 0.07568264228731679 7.682396985882333 0 1 1
10683 683 10 -0.8 4.107538545062817 4.767059073521255 4.25407205303847 1 0 0
2384 114 4 0.033 19.521313731881033 0.5864960593474602 11.807467631555598 0 0 3
3775 180 4 0.033 25.10275442830698 6.142057850216073 10.403340912427916 1 -1 1
8055 384 4 0.033 5.930282995978751 3.4484568621578893 1.8563521917314714 1 2 2
7407 353 4 0.033 8.955077460891527 5.143383682138411 5.452466886819096 1 1 2
7195 343 4 0.033 6.203042591414082 3.647818859902417 10.120146817265796 1 0 -1
7410 353 1 -0.1 7.238293618739587 6.652798439063174 7.4143534799182484 1 1 2
7411 353 4 0.033 6.554959806094775 7.510566770795593 7.485693635862932 1 1 2
7192 343 1 -0.1 7.21875729514353 3.4011832233635855 10.459698806116707 1 0 -1
7186 343 2 -0.131 6.179803567636186 1.3734761200359247 11.398204657855775 1 0 -1
2348 112 4 0.033 2.667393440620323 8.07382682836503 4.997517704580942 0 0 0
7196 343 1 -0.1 6.916419262624539 1.4071904779701518 9.013151040594625 1 0 -1
3012 144 6 0.034 0.4870038278400629 6.424691295066679 2.746261857196162 1 0 1
7448 355 1 -0.1 22.661091091060474 4.471266943318452 0.719089284135313 -1 1 -1
6908 329 4 0.033 14.950898630252404 16.951076084099025 8.992437085701923 0 -1 0
1712 82 4 0.033 3.609235514211932 0.9530536410931494 4.052504367081689 1 0 0
7185 343 7 0.791 7.2385865373874285 1.817947017453026 10.423316953229879 1 0 -1
8067 385 7 0.791 22.296023164777406 11.20777666631451 4.327974198231935 0 -1 2
3801 181 4 0.033 9.280897733418389 15.276668379175982 10.724315143643958 -1 1 0
10945 945 10 -0.8 0.5835724584471674 10.580430729885512 1.3002240354687677 0 1 3
8046 384 7 0.791 7.657492057116373 2.107646288982359 2.0856113691778106 1 2 2
5752 274 4 0.033 5.545878619411093 11.714902601589992 1.2480387875130974 0 -1 -1
10025 478 6 0.034 12.060314582955684 7.00243033438124 1.2195279597663498 1 1 -1
8076 385 4 0.033 23.88707834646756 10.788183101319854 3.000235457100856 0 -1 2
8085 385 4 0.033 22.37344579351053 9.385948383691028 5.280165782770603 0 -1 2
2101 101 8 -0.468 2.460377678191179 9.532383808968953 11.778892407064632 -1 1 0
2108 101 6 0.034 0.7955467131437909 8.473465740473225 12.598233757682541 -1 1 0
8059 384 4 0.033 9.744399089453742 2.498953845855529 1.121547646170637 1 2 2
7341 350 4 0.033 24.251799821180505 10.40541698413849 9.253804865972803 0 0 -1
5734 274 8 -0.468 7.817275350429123 14.769150850278486 0.2284145172306343 0 -1 -1
8078 385 1 -0.1 20.87764377757286 11.205664420284934 4.416706906411449 0 -1 2
8068 385 2 -0.131 22.88528098206181 12.583222577309044 4.606130604025376 0 -1 2
6620 316 5 0.068 19.825965614407977 9.664113587984662 11.834358930708818 0 0 0
8082 385 1 -0.1 22.807827038854864 10.388303048316388 5.400162098625609 0 -1 2
7188 343 5 0.068 5.230417844727393 1.7958269311012927 11.101950041346697 1 0 -1
8053 384 1 -0.1 6.954985064371311 3.338211122713257 1.4747336473277557 1 2 2
8079 385 4 0.033 20.435644939963026 11.665420823661902 5.3117276271541005 0 -1 2
7198 343 4 0.033 5.824333559948685 1.529626080510766 9.000527441975361 1 0 -1
8057 384 1 -0.1 8.899754770226712 1.803029901676064 1.2218815200409003 1 2 2
1714 82 4 0.033 2.4663307202916798 0.32025562342123026 5.441088420923736 1 0 0
8058 384 4 0.033 9.154957799801192 0.837447287029194 1.6804910162005349 1 2 2
8060 384 4 0.033 8.633607483833302 1.6381227633217994 0.16842421621539336 1 2 2
4693 224 1 -0.1 25.262063236408935 13.855680484796228 0.6778720645425247 0 1 0
8339 398 9 0.275 18.229847199898117 9.420749382499865 8.808453763404488 -1 0 0
3266 156 4 0.033 24.045926612660747 0.9427110855195378 11.981838487269606 1 -1 0
7292 348 5 0.068 18.608092804398687 11.28974148314817 0.8719406075255088 0 -1 0
8084 385 4 0.033 23.899348457601008 10.291186480144304 5.316793215370221 0 -1 2
7332 350 7 0.791 23.867763192793934 12.29703913425782 10.392375303614953 0 0 -1
10024 478 3 0.132 12.703072998810338 7.050247871079512 0.34671634707619026 1 1 -1
7193 343 4 0.033 7.903694507229047 3.734633365237232 9.667566856031206 1 0 -1
7409 353 4 0.033 10.202039218450349 6.382847232130562 5.537359599586995 1 1 2
7334 350 5 0.068 22.553871127071375 11.993031006337352 9.004773293680529 0 0 -1
5857 279 4 0.033 9.361488695906662 4.865682331539336 11.736469477953223 -1 1 1
5740 274 3 0.132 7.258741166740616 13.528575882781704 0.5722952677419921 0 -1 -1
5859 279 4 0.033 10.716879026900482 3.7176768472157544 11.314992348177588 -1 1 1
8075 385 4 0.033 22.623954340962502 9.594988532278519 2.792028961377255 0 -1 2
7406 353 1 -0.1 9.36757908572062 5.934311374246043 6.094398984410669 1 1 2
7408 353 4 0.033 9.605820667297236 5.426379550602189 7.039410742514204 1 1 2
8064 384 4 0.033 7.272866077497539 3.083583612888913 4.046185635504565 1 2 2
8061 384 1 -0.1 7.991765260357272 2.424075248538769 3.540187921188555 1 2 2
5849 279 4 0.033 10.979232113540931 6.642343536597643 11.171350256277767 -1 1 1
7412 353 4 0.033 7.602014571691917 6.42535935434586 8.426173471804221 1 1 2
10367 494 1 -0.1 2.916756200945153 16.95828943898735 8.355236765208497 2 1 -1
7338 350 6 0.034 22.605637246069275 14.946653219452841 9.50278662642372 0 0 -1
5848 279 1 -0.1 11.74305194404963 6.146693565232324 11.786745585095076 -1 1 1
5850 279 4 0.033 12.24109577846017 5.549844494091581 11.009877168362495 -1 1 1
10757 757 10 -0.8 10.516829360897784 3.4326312269309476 8.527608394853443 0 2 2
1435 69 3 0.132 15.837599738846105 2.587157843622235 9.882273500946972 -1 -1 -1
4962 237 5 0.068 14.726117337361018 2.0148781319050624 5.123063852761499 -1 -1 -1
4957 237 8 -0.468 15.102479633944915 4.270889916076908 4.448663762021168 -1 -1 -1
4961 237 5 0.068 13.360087536231672 2.216614011292529 4.047858282563581 -1 -1 -1
4960 237 2 -0.131 13.712720255604284 2.3835730379881075 5.055456970551916 -1 -1 -1
4963 237 3 0.132 13.93399483722558 3.9188294741927874 5.235238108118082 -1 -1 -1
4965 237 6 0.034 14.151504884672455 4.234786853223182 6.250169402257042 -1 -1 -1
4964 237 6 0.034 13.130724560706515 4.472320157146543 4.760231963443527 -1 -1 -1
5816 277 4 0.033 19.708313464662275 1.3942833748065158 4.029000604347381 0 1 1
4974 237 1 -0.1 11.22731971879362 2.1586394562928457 5.617087647061918 -1 -1 -1
4959 237 7 0.791 12.684193880807467 1.6391966274781076 5.9205892639876865 -1 -1 -1
4966 237 1 -0.1 13.165196119296924 2.003244894445806 7.274412383854999 -1 -1 -1
4967 237 4 0.033 12.548053996921958 1.4420418644943434 7.989945593821474 -1 -1 -1
4977 237 4 0.033 11.219321704234158 3.2364433669203065 5.831740315795079 -1 -1 -1
4969 237 4 0.033 14.174337610950175 1.6201369743729732 7.480962083620497 -1 -1 -1
4968 237 4 0.033 12.910644939502172 3.0427337961760177 7.52434758562697 -1 -1 -1
4976 237 4 0.033 10.91799402052367 2.0001841084809557 4.574489672108259 -1 -1 -1
1717 82 4 0.033 0.6624495782320773 2.7606935653060756 3.064209623784102 1 0 0
4970 237 1 -0.1 12.619669747011983 0.11934558541873425 5.610043324844923 -1 -1 -1
4975 237 4 0.033 10.552240161443041 1.6485694339401253 6.318441477297982 -1 -1 -1
7449 355 4 0.033 21.639148197601198 4.622363185737094 0.34411769602027004 -1 1 -1
1437 69 6 0.034 15.54740686475277 3.489252596335062 9.35384348147996 -1 -1 -1
8062 384 4 0.033 8.946094073800875 2.95807546344219 3.431097712404953 1 2 2
1436 69 6 0.034 15.27581574131581 2.366646906359179 10.783937892779662 -1 -1 -1
1429 69 8 -0.468 15.8070234189948 1.3921378193348268 9.221772172818893 -1 -1 -1
1430 69 9 0.275 15.388889148279903 0.7699439718185423 9.803699635453276 -1 -1 -1
7200 343 1 -0.1 8.571465418029586 1.1115587784917165 10.662460068657907 1 0 -1
302 15 6 0.034 17.512536206289088 4.804083733853385 2.437087312031569 0 0 0
7403 353 4 0.033 10.126488663667727 8.057482193643638 6.677603741201022 1 1 2
7402 353 1 -0.1 9.165460340943614 8.0702898510315 7.2105780421692085 1 1 2
7404 353 4 0.033 9.086969812517106 7.90899371986798 8.294839910751971 1 1 2
7203 343 4 0.033 9.123697555904686 1.5389883692629491 11.511073435748731 1 0 -1
8353 398 4 0.033 13.328641427378354 7.332350457988219 9.133155387779743 -1 0 0
8352 398 4 0.033 12.702319143341214 8.649530332769869 10.01224856440303 -1 0 0
10973 973 10 -0.8 10.940907318051442 4.234752185021581 3.0609851103242054 0 1 1
8342 398 5 0.068 15.57169846502497 8.173702703128319 9.03075396255229 -1 0 0
1447 69 4 0.033 15.540169568971859 3.6592333971401794 12.441715440971535 -1 -1 -1
7201 343 4 0.033 9.261580801677788 1.0933124766502187 9.807352545734073 1 0 -1
8083 385 4 0.033 22.529712642789512 10.836200214493617 6.364445010053071 0 -1 2
1432 69 2 -0.131 17.11196362882173 2.877607654199834 10.414307852719178 -1 -1 -1
1439 69 4 0.033 15.960713261377698 5.6695221065631065 10.593742583954494 -1 -1 -1
301 15 3 0.132 17.406391915433808 5.799301587405212 2.018160152753021 0 0 0
8039 383 4 0.033 15.625832592522134 1.8904266469547393 0.5239912280044077 -1 -1 0
1438 69 1 -0.1 17.035639763392833 5.4580732881709855 10.681054864296296 -1 -1 -1
295 15 8 -0.468 17.963335097006446 5.7390973450728024 0.7529320478442553 0 0 0
1446 69 1 -0.1 16.608677574564478 3.8834832874142404 12.567428293292862 -1 -1 -1
8063 384 4 0.033 8.019087089928007 1.45921367903808 4.065636976506864 1 2 2
1471 71 8 -0.468 0.3424693618689147 10.843298286951498 6.962702880596031 2 -1 1
8065 385 8 -0.468 23.02333448149305 14.987061712428225 4.039350194247672 0 -1 2
6994 334 8 -0.468 8.878941674088642 16.388365826777534 2.350853635433385 0 0 1
8354 398 4 0.033 11.99214387648758 8.262797916029228 8.386449911423329 -1 0 0
4104 196 6 0.034 12.591477350100329 9.180959244122176 2.979881430159571 1 -2 0
4096 196 8 -0.468 11.651768775176043 9.371673859729682 4.861955206281811 1 -2 0
4097 196 9 0.275 10.743009244528823 9.098413095966846 4.85269583530595 1 -2 0
8351 398 1 -0.1 12.914179156861112 8.338563477305497 8.979671224915037 -1 0 0
10028 478 4 0.033 9.965687250894435 5.932887125945428 0.4374364319528279 1 1 -1
6900 329 4 0.033 15.503683849308228 16.33291990291344 11.524919645006376 0 -1 0
7455 355 4 0.033 22.796106284960555 7.452667327630843 2.3237046348835744 -1 1 -1
3774 180 4 0.033 24.913671153429018 4.4920998503740694 10.30541607312975 1 -1 1
7333 350 2 -0.131 23.057889046387483 12.912789785128565 9.264561645883404 0 0 -1
10613 613 10 -0.8 16.351259930141804 5.735223711531229 7.39060200917525 1 0 1
10368 494 4 0.033 2.6248912761347554 16.08430242823103 8.95420468859181 2 1 -1
5258 251 6 0.034 23.626776640080017 16.34556834223388 2.290975546585577 1 1 1
7444 355 1 -0.1 24.638162863858522 5.303657464525818 1.5914815597353638 -1 1 -1
10502 502 10 -0.8 18.739297843695315 2.403151007315162 1.7724219536578236 0 2 0
306 15 4 0.033 16.045337282715703 8.26555313934193 4.086187454129356 0 0 0
7452 355 1 -0.1 22.461707405731964 6.483330879573073 1.9282740101330789 -1 1 -1
9427 449 4 0.033 23.431296839530845 0.4374793394424406 8.143335584027419 0 -1 1
1441 69 4 0.033 17.236453308763494 6.0362732577417635 11.593830705423708 -1 -1 -1
1434 69 5 0.068 17.86614950352795 3.1009828773384593 9.673506029419414 -1 -1 -1
5804 277 6 0.034 18.725700456776483 0.7564130765833867 8.519847398724554 0 1 1
3024 144 4 0.033 1.902952350075464 7.701607424031861 1.2669820331278128 1 0 1
3773 180 1 -0.1 24.843543728706415 5.377287869178323 9.657862737309795 1 -1 1
3764 180 5 0.068 22.13479839059406 4.88449500360433 10.46493965495196 1 -1 1
1431 69 7 0.791 17.32375352916347 4.089387213912111 11.301501193369432 -1 -1 -1
1440 69 4 0.033 17.59166655677029 5.9088074589462165 9.847104044025674 -1 -1 -1
1444 69 4 0.033 19.457654633438874 3.846013135461977 10.827890069717839 -1 -1 -1
1433 69 5 0.068 17.36160583700757 2.009455315911013 11.007157357466248 -1 -1 -1
10019 478 9 0.275 14.10017773884984 7.3620380189120045 1.4576372622880633 1 1 -1
10620 620 10 -0.8 23.096603006130852 4.814142410995245 4.86610435241085 0 1 1
3766 180 3 0.132 22.632917389556553 6.735919805032969 11.194368482613955 1 -1 1
4958 237 9 0.275 15.565524161406133 4.633412871201299 5.193491174380294 -1 -1 -1
312 15 1 -0.1 18.71774847194638 5.90345755934047 4.944137522692751 0 0 0
5815 277 4 0.033 19.920892618969773 3.09966790069571 4.400142454770793 0 1 1
5814 277 1 -0.1 19.991404526553275 2.090893823016837 4.8304957475067996 0 1 1
5807 277 4 0.033 18.899056350462743 2.7015785605832003 7.962686044872665 0 1 1
5806 277 1 -0.1 19.442155817099458 2.7961651818852493 7.01195095123796 0 1 1
5808 277 4 0.033 19.3963484455805 3.8418657998805643 6.67696896022121 0 1 1
10826 826 10 -0.8 21.45604922155276 1.917108075824021 9.850134228897595 0 0 0
3780 180 4 0.033 23.206444174994562 7.4148968125091965 7.461730003121208 1 -1 1
3777 180 1 -0.1 23.827421291002267 6.8192063447138915 8.145353647823201 1 -1 1
5813 277 4 0.033 17.024884305984745 1.9312987366583858 6.6544534693858095 0 1 1
3772 180 4 0.033 22.977270437725263 3.5407675261379272 8.359324319728515 1 -1 1
5812 277 4 0.033 17.65703821753569 3.115653094911828 5.264813153060514 0 1 1
3762 180 7 0.791 23.517935886591417 5.620084703004245 8.97921893389402 1 -1 1
5810 277 1 -0.1 17.574296743936184 2.1194268376577305 5.721418208753991 0 1 1
5811 277 4 0.033 17.292307752207993 1.4605572936326 4.888247074755348 0 1 1
3769 180 1 -0.1 23.18888935958942 4.5537083326525 7.9892304669057514 1 -1 1
3770 180 4 0.033 23.96915866157804 4.3857405460492735 7.233738784048374 1 -1 1
3771 180 4 0.033 22.23616890625781 4.929562266489311 7.590659822792971 1 -1 1
3763 180 2 -0.131 22.3409723820758 5.826079309148223 9.97668609765608 1 -1 1
3765 180 5 0.068 21.46642619259049 5.975113451539348 9.359889481993877 1 -1 1
5799 277 7 0.791 19.028749132345098 1.8629784878806959 5.953418460869683 0 1 1
5809 277 4 0.033 20.481351503082788 2.5605169172217854 7.280918027578139 0 1 1
313 15 4 0.033 18.184700157759195 4.98565551182992 4.659006166361322 0 0 0
314 15 4 0.033 18.540570980955458 5.937547730773131 6.028225614109895 0 0 0
315 15 4 0.033 19.81139513743702 5.850015669616748 4.8498933925672505 0 0 0
3778 180 4 0.033 24.774675996008554 6.790475953496926 7.588860971923432 1 -1 1
7445 355 4 0.033 25.03456852934826 6.294167883830865 1.8552099838882918 -1 1 -1
3767 180 6 0.034 23.466756724731113 6.20271953480385 11.638929454967856 1 -1 1
299 15 5 0.068 19.104382197934978 6.687522558270676 2.4697170486193785 0 0 0
311 15 4 0.033 19.86463533807874 7.986922889615033 4.87261820714817 0 0 0
3779 180 4 0.033 23.92386013334881 7.635297402313878 8.875076837232298 1 -1 1
3760 180 8 -0.468 21.59376272037289 6.791867518218811 12.07595057653414 1 -1 1
309 15 4 0.033 18.571303686088093 8.148353773111381 5.9950555049955145 0 0 0
3768 180 6 0.034 22.905716692484983 7.707550548293509 10.7959474917368 1 -1 1
298 15 2 -0.131 18.108971666713412 6.977411159448591 2.7740240166132195 0 0 0
308 15 1 -0.1 18.786847860230964 8.196853296773034 4.918491742689416 0 0 0
297 15 7 0.791 18.018643929213873 7.049585767779377 4.264124171132259 0 0 0
7453 355 4 0.033 22.098869273794627 5.825141124568468 2.730106760132811 -1 1 -1
3011 144 6 0.034 0.364177891061331 4.744247415200453 3.131376166811587 1 0 1
10018 478 8 -0.468 13.653456757333675 7.939597172095888 0.8514468303852375 1 1 -1
8056 384 4 0.033 6.943291459709929 3.222349970342757 0.3819205454615984 1 2 2
5817 277 4 0.033 21.04290349337118 1.9178278468727894 5.099194711882394 0 1 1
2107 101 3 0.132 1.146685747707805 9.3473852078717 12.059539791956114 -1 1 0
6623 316 6 0.034 17.931394926305533 11.516801533279903 11.93575096434267 0 0 0
1719 82 1 -0.1 1.9059430657418512 0.4730221716383913 2.263175248302163 1 0 0
7350 350 4 0.033 25.30217475078452 13.139148861299887 11.82059341144221 0 0 -1
710 34 4 0.033 3.1026176694670946 16.776761480170908 12.33625480696782 1 1 0
7437 355 7 0.791 23.41621019289735 5.722680847492846 0.9470763985902525 -1 1 -1
300 15 5 0.068 17.97762143807084 7.9633320567058865 2.3519015261531373 0 0 0
310 15 4 0.033 18.310887486386655 9.085136290598314 4.480067136501881 0 0 0
8070 385 5 0.068 22.75790841776907 13.049586663237667 5.572443731072267 0 -1 2
5801 277 5 0.068 20.189972987510078 0.12084928005101574 6.646346541301974 0 1 1
7450 355 4 0.033 22.752113098336405 3.9059818175784256 1.657155768688305 -1 1 -1
6899 329 4 0.033 14.177148536529995 15.464573004321966 10.67643982293504 0 -1 0
7348 350 4 0.033 24.345395341456268 14.274855668068824 10.880615165352655 0 0 -1
8074 385 1 -0.1 22.795570760959077 10.6600803443283 3.001619714075306 0 -1 2
4274 204 4 0.033 4.09092009659778 8.225959283763377 9.083573130489732 3 -2 -1
4276 204 4 0.033 4.111364477547671 7.578713476950959 7.441546963896782 3 -2 -1
5847 279 6 0.034 12.981157930776249 3.232685853496003 11.870536377031268 -1 1 1
4695 224 4 0.033 25.08693535032135 13.578817930808992 1.7269089397562716 0 1 0
2346 112 4 0.033 1.6482929073497667 9.159198927532461 3.8690050893852588 0 0 0
10372 494 4 0.033 1.1854302318103482 15.048338465448209 7.602956411123436 2 1 -1
8346 398 6 0.034 16.345574292757227 10.795117601126842 8.264891197135746 -1 0 0
7335 350 5 0.068 23.712642522015365 13.224989405265568 8.463743576111932 0 0 -1
8054 384 4 0.033 7.700837240982996 4.139060195757396 1.5754625795692054 1 2 2
7405 353 4 0.033 8.745364182156223 9.06611276648072 7.011437457383408 1 1 2
3018 144 4 0.033 2.246436816729801 4.876347656847837 1.7681261961833816 1 0 1
5735 274 9 0.275 7.063222624424182 15.339775557681849 0.3083706890526937 0 -1 -1
3296 157 4 0.033 7.175513532489518 9.791321449274905 11.0360583744894 0 1 -1
2347 112 4 0.033 2.156714939929652 9.366583156217425 5.664603039387756 0 0 0
7331 350 9 0.275 20.391535058604845 14.27754889594576 8.494107094640704 0 0 -1
2340 112 6 0.034 5.793175985224293 11.595573518417213 3.5803278829941116 0 0 0
3277 157 8 -0.468 2.8787298509669275 12.499556375376617 11.05595002669453 0 1 -1
2333 112 9 0.275 5.13829158822033 13.648398148596817 3.379148346282357 0 0 0
9241 441 8 -0.468 21.884800551482595 16.75483938801337 6.444048066279726 1 -1 1
10587 587 10 -0.8 5.76936427309253 15.081164712099344 10.805683715957072 1 1 1
3281 157 5 0.068 4.853874943397089 10.708828349880777 11.200392299255649 0 1 -1
3267 156 4 0.033 25.47053743236971 1.4906059133422898 10.887604044959097 1 -1 0
7454 355 4 0.033 21.534341563157106 6.782118306144428 1.419825611920122 -1 1 -1
3294 157 1 -0.1 7.4994484601955556 10.71828682844872 11.529619263932979 0 1 -1
8073 385 6 0.034 21.569663932307378 13.505776691687721 3.3698245995871297 0 -1 2
2332 112 8 -0.468 4.5187293286602745 13.325453226380262 4.021371256479385 0 0 0
2102 101 9 0.275 2.5895850033327292 9.889716595302597 10.90928339721503 -1 1 0
7345 350 4 0.033 22.37710761695812 12.588989779672536 11.861581528769557 0 0 -1
10598 598 10 -0.8 5.956729970616215 10.004766338029704 8.243953404769583 0 0 -1
10358 494 5 0.068 4.837068559725824 15.514099135305948 7.193216516476735 2 1 -1
10355 494 9 0.275 4.871635339882045 12.68242563191901 8.163192300021839 2 1 -1
10357 494 2 -0.131 3.8514674081724616 15.200186986482716 6.880918889184136 2 1 -1
10359 494 5 0.068 4.057249794302659 14.948418659777323 5.850508007214524 2 1 -1
10360 494 3 0.132 3.5193726898122883 13.820212772215502 7.452175541956065 2 1 -1
2351 112 4 0.033 4.883720714346972 8.187139948740635 5.44132264919944 0 0 0
2350 112 4 0.033 5.5840728148035685 9.780332955699402 5.447042253712722 0 0 0
2349 112 1 -0.1 4.620151048319759 9.253650323242788 5.411527843136886 0 0 0
2338 112 3 0.132 5.030061554728061 12.010525642502925 4.2304787238752715 0 0 0
2341 112 1 -0.1 4.284377785974513 8.938860383775308 2.995860883001096 0 0 0
2345 112 1 -0.1 2.4298599294374443 9.084845997472494 4.638047112790284 0 0 0
2334 112 7 0.791 3.7419347659708557 9.621983513135415 4.211585959994684 0 0 0
9429 449 4 0.033 24.900976093564402 0.9691746552705262 7.150567120674829 0 -1 1
2337 112 5 0.068 3.242260670358424 11.392572522783755 3.2306611791728397 0 0 0
2343 112 4 0.033 4.249978198414099 7.863974098559025 3.2222171204812167 0 0 0
2335 112 2 -0.131 3.739897874705325 11.119377473053836 4.150009861536129 0 0 0
10373 494 4 0.033 1.3774960991715919 15.487600053942119 5.9003822741139285 2 1 -1
2342 112 4 0.033 3.905780973839119 9.246623902470022 2.011103507484256 0 0 0
2344 112 4 0.033 5.357533680428441 9.099205200891593 2.8214275743446646 0 0 0
2339 112 6 0.034 5.312662687556696 12.026180261445024 5.277912044018984 0 0 0
3295 157 4 0.033 7.773032158330116 11.540558523010022 10.853732993365163 0 1 -1
2352 112 4 0.033 4.1168907236225 9.54371464576011 6.344476295650351 0 0 0
3282 157 5 0.068 5.566720405592425 12.134440019213182 10.647284416974683 0 1 -1
10354 494 8 -0.468 4.64713671861433 12.986049350099934 7.292552292078705 2 1 -1
10532 532 10 -0.8 4.598575052121498 15.753546355730316 1.6220454989274302 0 1 1
10361 494 6 0.034 3.29594296293547 14.049330740030733 8.48890558762061 2 1 -1
7202 343 4 0.033 8.195078172169886 0.1085336053526668 10.90756048615586 1 0 -1
254 13 9 0.275 6.602890055091268 14.678612441722112 3.549716036256171 0 1 0
253 13 8 -0.468 7.1005825245828165 15.17529052242583 4.187065310722445 0 1 0
7304 348 4 0.033 17.176344655534304 14.60361385821134 1.587197329806064 0 -1 0
10362 494 6 0.034 2.6544238674324796 13.465104720470718 6.901733154960612 2 1 -1
10356 494 7 0.791 2.8193611798952776 16.351407672312106 6.999261596917918 2 1 -1
7303 348 4 0.033 18.031147968409375 13.252873002271683 2.276810650878579 0 -1 0
261 13 6 0.034 7.090815640793893 15.389916084126218 6.283037035342217 0 1 0
260 13 6 0.034 6.51287626205467 13.846364098471431 5.755124146631828 0 1 0
259 13 3 0.132 7.244771956435595 14.61711380861661 5.537182361568567 0 1 0
3279 157 7 0.791 6.3130524638551435 11.18672546178677 12.396911735445851 0 1 -1
3278 157 9 0.275 2.6101253690874513 13.369072947479005 10.786889496730174 0 1 -1
7302 348 4 0.033 19.028896565729124 14.27759739681846 1.2945608740410997 0 -1 0
3283 157 3 0.132 3.8852079869158445 12.424422166203037 12.107663939872605 0 1 -1
258 13 5 0.068 9.197050124805134 14.788128112150776 5.578646080137915 0 1 0
3280 157 2 -0.131 5.142953914861895 11.693638266869671 11.538124495337904 0 1 -1
267 13 4 0.033 7.182496204158486 13.93259391035374 8.223952076167079 0 1 0
268 13 4 0.033 8.470863140282857 15.232374301973463 8.399753249928269 0 1 0
256 13 2 -0.131 8.583629899492278 13.92053264067087 5.774793986754852 0 1 0
1479 71 6 0.034 0.1569105696246415 12.42920139718359 8.291244582351878 2 -1 1
5754 274 4 0.033 4.359106183351519 12.112297987801274 0.1847152984516962 0 -1 -1
7330 350 8 -0.468 21.269563973711044 14.02078728515953 8.241639818516116 0 0 -1
1472 71 9 0.275 0.5264824104318678 11.138917928688414 6.079895242085584 2 -1 1
9426 449 1 -0.1 24.02780212264717 0.306517134182571 7.229644483630877 0 -1 1
8071 385 3 0.132 22.616794336784626 13.637366182460699 3.6216720845644197 0 -1 2
2336 112 5 0.068 3.0512903657808548 11.509476994932175 4.885620105554332 0 0 0
10371 494 1 -0.1 1.3990106868989942 15.886032220271131 6.924389093850889 2 1 -1
7337 350 6 0.034 21.60411241116286 13.950584480869754 10.415266037898721 0 0 -1
4109 196 1 -0.1 13.102968919341517 11.315392874273316 0.9049140475297759 1 -2 0
6889 329 8 -0.468 19.24166562534147 16.61912656651723 11.910894098964047 0 -1 0
7447 355 4 0.033 24.496122532689217 4.806680000443051 2.561347027841097 -1 1 -1
8081 385 4 0.033 20.461512983184228 11.61441248633385 3.485277260375406 0 -1 2
8069 385 5 0.068 23.955193590775064 12.435557015740466 4.637149465578682 0 -1 2
7730 369 9 0.275 0.053545215881096474 7.94430802388183 6.939236692414171 1 0 0
8343 398 5 0.068 14.889438875644839 9.46438618925512 10.111195458133109 -1 0 0
6892 329 2 -0.131 17.413167611934803 16.092839603236932 10.190231710701998 0 -1 0
10745 745 10 -0.8 21.707158353883877 14.329764299186818 0.7549180188291047 0 1 0
8345 398 6 0.034 16.78916244735936 9.172819939159853 7.657341978864865 -1 0 0
257 13 5 0.068 8.991297882032102 13.372373040144637 4.937651154512789 0 1 0
6619 316 2 -0.131 19.66097888531052 10.335715478715382 12.664546032582 0 0 0
7339 350 1 -0.1 24.73822561018141 11.219684319948913 9.808926180781079 0 0 -1
4116 196 4 0.033 12.858822915919752 13.982502473699666 3.1284476189440484 1 -2 0
6906 329 1 -0.1 15.432609219624329 16.015799527067095 8.674610554843003 0 -1 0
4113 196 1 -0.1 13.238950937015188 13.261390484882423 2.391357894328842 1 -2 0
4110 196 4 0.033 12.517674481007452 10.436178078821547 0.6012484655950853 1 -2 0
1705 82 2 -0.131 0.12537803649674023 0.2912318107812788 4.136375103014505 1 0 0
7607 363 5 0.068 15.767423213218526 16.428854199099135 2.8310201498834973 0 2 0
10825 825 10 -0.8 11.810159660399043 12.363336030763445 11.05903256154862 -1 0 0
6891 329 7 0.791 16.116212184175275 15.356454365531789 9.859240994618995 0 -1 0
6909 329 4 0.033 14.647698746789604 15.262390820037108 8.51939496152343 0 -1 0
4101 196 5 0.068 13.408330750636862 11.21067719936417 3.96937808935005 1 -2 0
4106 196 4 0.033 10.392710736554834 11.36967148656317 1.6238822044888186 1 -2 0
10538 538 10 -0.8 8.350731287950088 10.886854495058572 3.4898607285833436 1 1 0
7608 363 5 0.068 14.70955000083168 15.50512200795898 3.723907106337884 0 2 0
6905 329 4 0.033 15.491420023225398 13.423832884627032 9.346433622329936 0 -1 0
6902 329 1 -0.1 16.419346265812145 13.987145095413553 9.517994863276886 0 -1 0
264 13 4 0.033 7.627591413294283 11.816693924095043 7.4069502507212945 0 1 0
4098 196 7 0.791 12.450584485576954 11.976284737658645 2.1400084067538314 1 -2 0
269 13 4 0.033 8.324095658459138 13.691052549826553 9.29301822797201 0 1 0
266 13 1 -0.1 8.255087474218445 14.159285376267604 8.301152836642887 0 1 0
265 13 4 0.033 9.106014841788785 11.44605552126388 8.184324699963357 0 1 0
271 13 4 0.033 10.753591692733089 14.496001003893936 7.290255442005599 0 1 0
4099 196 2 -0.131 12.454192844176882 11.2378111500235 3.4630532323897487 1 -2 0
4103 196 6 0.034 10.971247602262052 9.917556400107129 3.0518798991975284 1 -2 0