LAMMPS data file via write_data, version 29 Sep 2021, timestep = 5000000

15000 atoms
16 atom types
10000 bonds
8 bond types
18500 angles
13 angle types
24000 dihedrals
10 dihedral types

0 49.73967 xlo xhi
0 49.74841 ylo yhi
0 49.75219 zlo zhi
3.04621155345851e-15 3.04644301170355e-15 3.04644301170355e-15 xy xz yz

Masses

1 12.01
2 12.01
3 12.01
4 1.008
5 1.008
6 1.008
7 14.01
8 16
9 1.008
10 35.45
11 0.0001
12 0.0001
13 0.0001
14 0.0001
15 0.0001
16 0.0001

Bond Coeffs # harmonic

1 340 1.099
2 490 1.498
3 490 1.516
4 340 1.0805
5 317 1.521
6 340 1.085
7 450 1.395
8 553 0.949

Angle Coeffs # harmonic

1 35 110.01
2 35 108.9
3 51.8 110.2
4 35 106.4
5 70 116.6
6 35 108.3
7 80 109.6
8 35 109.3
9 35 111.6
10 35 110.9
11 35 108.73
12 35 108.6
13 35 107.4

Dihedral Coeffs # opls

1 0.1 0.55 0.65 0
2 0 0 0.825 0
3 0 0 0.94 0
4 0 1 0.7 0
5 -6 -5 3.2 0
6 -0.5 -2.5 0.25 0
7 -6 -7 0.75 0
8 6 -3 2 0
9 -0.356 -0.174 0.35 0
10 -3 1 -2 0

Atoms # full

8870 808 7 0.791 6.467073267380668 5.676925787710918 0.3753400846194469 0 0 1
8809 805 5 0.068 8.71828693220401 9.023954768253942 1.30803360592375 0 0 1
8885 808 1 -0.1 7.353427907624256 6.63159401605587 1.3276819541704195 0 0 1
10577 965 4 0.033 9.42685060569863 2.578924505509491 1.7503753851717903 0 1 1
8540 780 10 -0.8 5.537384987822995 0.13454442371779962 1.2885788206747777 1 1 1
93 13 8 -0.468 23.468876159583232 9.099467277194359 11.570359698380901 0 0 0
1854 173 9 0.275 23.890373229806954 0.11889977242888634 7.3222783253905925 0 1 0
8825 805 4 0.033 11.397639920506325 11.530316363225914 0.6527192733230656 0 0 1
9629 878 4 0.033 1.2010061283994584 16.329413686660807 7.321823752945358 1 0 1
9034 823 4 0.033 24.763581794119204 10.584014424269581 2.874035428867959 0 0 1
246 24 7 0.791 24.80241092112577 4.779243108979132 8.272495801593204 0 0 0
10658 973 5 0.068 20.282541318448107 0.11158699082053962 1.0810255181772783 0 1 1
9043 823 4 0.033 24.802775793656867 11.698988073799944 6.6246310417009315 0 0 1
1866 173 1 -0.1 19.607505646565162 0.1743348376304852 10.08649142503707 0 1 0
8941 815 3 0.132 12.462616471133437 10.472201489562991 4.172360959822032 0 0 1
8854 807 6 0.034 4.340349608164067 8.7795652934859 3.05607161843099 0 0 1
1859 173 3 0.132 22.111487562613434 0.13490251875179665 8.32893835598029 0 1 0
24 5 4 0.033 10.54946448618341 9.382163244620934 12.29556768120408 0 0 0
9035 823 4 0.033 23.987699934144203 10.156007323954494 4.493290600887861 0 0 1
9186 838 6 0.034 0.47598251233098227 6.2660434661094335 2.92467731946606 1 0 1
14991 0 15 0 24.457 0.972 5.906 0 0 0
9158 837 9 0.275 1.5401776598921215 10.401510073172606 3.939473533600111 1 0 1
94 13 9 0.275 24.058143555527373 9.798757433305354 11.3166704781348 0 0 0
9039 823 4 0.033 23.74682971058515 12.810026892689862 4.79381717502117 0 0 1
2127 197 4 0.033 1.2938150936404147 2.6619699673734445 10.850708805273083 1 1 0
21 5 4 0.033 11.839327674382131 11.508394246094465 10.524353431896092 0 0 0
172 16 4 0.033 14.720698326422191 3.9207103597052355 9.497638262942376 0 0 0
8852 807 5 0.068 6.069158831031755 10.984418418876912 4.107593129602211 0 0 1
1768 165 2 -0.131 9.355481026918671 0.15249895618037057 9.347037911393576 0 1 0
1783 165 4 0.033 12.126835315186755 2.1601765434788165 9.511942837781895 0 1 0
10619 967 4 0.033 3.7406129447521392 1.3190539318760137 3.4614560080592787 0 1 1
8928 814 4 0.033 20.684939144763938 6.047319471795714 3.081957065060748 0 0 1
266 26 10 -0.8 24.076686728246564 11.492167120272766 9.246830860724533 0 0 0
8845 806 4 0.033 11.438417175564494 5.989595188497984 3.8891770650744064 0 0 1
8856 807 1 -0.1 4.1696779606528755 9.154126873830062 6.026001006631887 0 0 1
8857 807 4 0.033 4.866828661361509 8.3639944504509 6.338207225555939 0 0 1
8859 807 4 0.033 3.5662747716200514 9.405298603456513 6.909527540711011 0 0 1
8858 807 4 0.033 3.628172682273205 8.561469259771357 5.275447531267319 0 0 1
8939 815 5 0.068 14.200447346504319 11.721281077288431 3.543212555629663 0 0 1
8847 807 8 -0.468 5.880462271406054 9.61266609062919 2.0027607878057907 0 0 1
9058 824 4 0.033 23.254438389861612 5.266555121130503 1.3519883762813765 0 0 1
8938 815 2 -0.131 13.850832720297298 11.08025778181571 4.339666781366768 0 0 1
10710 975 4 0.033 14.512345305304914 2.526582559326959 6.1027543067412084 0 1 1
8887 808 4 0.033 7.932179701820477 6.095285894325789 2.092679686198751 0 0 1
2126 197 1 -0.1 0.4196765999165592 2.973781255268502 10.262102705841231 1 1 0
8961 816 5 0.068 13.585508543753733 2.822094044643843 1.0455261936582654 0 0 1
8966 816 4 0.033 13.64176958291957 5.358484926986562 2.243731158820201 0 0 1
259 24 4 0.033 22.716488033092947 4.777114350522616 8.814443030131686 0 0 0
14418 0 16 0 0.888 6.280000000000009 7.98 0 0 0
8862 807 4 0.033 3.1900797619641237 11.40643198240997 4.5441129186542835 0 0 1
1776 165 4 0.033 11.943140755837957 1.086941878293446 11.42581372606625 0 1 0
9317 848 1 -0.1 4.285706562338152 14.853903109085609 1.7933843998576666 0 0 1
8959 816 2 -0.131 13.82429754067409 3.2897744945022933 0.10120892804668401 0 0 1
9321 848 1 -0.1 4.625589633086743 16.32512772268914 0.09429234914552034 0 0 1
2122 197 5 0.068 0.9610216480648044 1.233341074680132 8.241647169655502 1 1 0
615 56 4 0.033 14.151984859885646 13.141015811986641 10.90921486713706 0 0 0
14412 0 16 0 22.176 4.317 0.12400000000000001 0 0 0
9310 848 7 0.791 5.372211626860784 15.754574620289217 1.2551542364619896 0 0 1
9311 848 2 -0.131 6.605039213695148 14.966389114707827 0.6317610925740342 0 0 1
8873 808 5 0.068 6.136191844852495 4.366455793502329 2.1558983058251004 0 0 1
366 37 1 -0.1 1.1761627930717518 9.903765177910618 10.521409178519155 1 0 0
9947 907 10 -0.8 1.1990627730102672 15.772217377776462 1.286328070033716 1 0 1
13906 0 13 0 20.392 4.977999999999999 6.022 0 0 0
8940 815 5 0.068 13.582502631694947 11.700608932897069 5.182663694490812 0 0 1
9189 838 4 0.033 1.0344095227275194 7.152694335995404 6.431377342895746 1 0 1
9178 838 8 -0.468 0.3006583300051417 4.43071785455166 1.8130642704296531 1 0 1
10576 965 4 0.033 8.082183045232682 1.341648933544114 1.3164195587451202 0 1 1
359 37 7 0.791 0.21703059937896735 11.173943828424 10.697886417036555 1 0 0
16 5 4 0.033 10.306457344242382 12.761697127597493 11.109444477105926 0 0 0
10581 965 4 0.033 12.302383299228579 0.4869341753547349 1.6869225802877963 0 1 1
9059 824 4 0.033 23.069571103377232 7.15561298670299 0.8910678302628717 0 0 1
377 37 4 0.033 0.2879581646080773 13.160028731030547 11.82744186053654 1 0 0
1774 165 1 -0.1 11.18605232323264 0.39236960329091086 11.035701613334336 0 1 0
13485 0 14 0 22.063 0.806 0.08800000000000001 0 0 0
9036 823 1 -0.1 24.75888360651 12.989219232191356 4.404666752744621 0 0 1
7217 657 10 -0.8 14.748101821413862 5.111344358336062 4.70590733387752 0 0 1
9164 837 6 0.034 0.5573731314678978 11.795575033621072 2.7449861336443524 1 0 1
10618 967 4 0.033 3.3575518461144185 2.2583111908679894 4.924390113851979 0 1 1
8844 806 4 0.033 9.855782857692661 6.716186753596992 3.9897221148686217 0 0 1
8831 806 5 0.068 9.16547363979397 7.246816299894517 6.7682714681145395 0 0 1
8843 806 1 -0.1 10.668346820453083 6.306907236376018 4.606188729703085 0 0 1
8846 806 4 0.033 11.248571604573504 7.099676644518987 5.098790961303587 0 0 1
13926 0 13 0 19.958 14.849 6.614 0 0 0
1784 165 4 0.033 11.14184004432016 1.8324429742592718 8.103726008269104 0 1 0
8876 808 6 0.034 5.486061112636707 2.9769530205209325 0.28008377412790425 0 0 1
9496 864 4 0.033 23.56854820215467 14.886905573056202 1.936172377066126 0 0 1
10698 975 2 -0.131 15.95666135230463 0.22905218077243572 6.015250239510441 0 1 1
8905 813 4 0.033 18.862781692499667 12.108123318777078 1.0552472515268867 0 0 1
8817 805 4 0.033 7.834928305022532 12.450278851643732 0.2583911941751522 0 0 1
8955 815 4 0.033 14.751978484875671 8.655219925964468 3.367593540161007 0 0 1
9364 854 4 0.033 18.55791456166145 12.739664534556514 3.9023912016959725 0 0 1
9284 846 4 0.033 8.493044199180657 15.690030519401045 4.943466362900848 0 0 1
8842 806 4 0.033 11.777818893526373 4.165551863715185 6.073529292984226 0 0 1
6601 601 10 -0.8 4.244002146174833 0.7352763069328512 10.612530246776862 0 0 1
9630 878 4 0.033 0.6086238335913484 14.799298123796696 6.776307898545092 1 0 1
8807 805 7 0.791 9.42357661210388 10.921016171323123 0.3666300544585089 0 0 1
175 16 4 0.033 17.026466102655558 6.894107671093999 9.864788231172403 0 0 0
8867 807 4 0.033 5.2009336899795615 10.98339652674561 7.639554141369235 0 0 1
14938 0 15 0 1.5459999999999994 15.069 4.867000000000001 0 0 0
10578 965 1 -0.1 11.308405787270173 0.8167382032423611 2.0201484563554715 0 1 1
255 24 4 0.033 24.231330294297404 6.587432795174645 8.946983497319035 0 0 0
8865 807 4 0.033 6.3241564313228515 11.732575815924864 6.532172320484893 0 0 1
10703 975 6 0.034 16.726164637759712 2.261711123196993 5.916256183991056 0 1 1
10580 965 4 0.033 11.37333285712115 1.8704232655441873 2.3256535191953542 0 1 1
8832 806 3 0.132 8.31962889851277 5.776397204379083 7.680664859374466 0 0 1
13922 0 13 0 9.298 15.503 3.468 0 0 0
5723 523 10 -0.8 14.741661094212574 14.512629132058406 4.724686064930755 0 0 0
170 16 4 0.033 16.236180946900422 3.9428159835607404 10.158398932860857 0 0 0
9373 854 4 0.033 20.668523563267573 12.69246615191836 4.859452804109446 0 0 1
8922 814 6 0.034 19.310193203463058 6.614610888197367 7.063631825161964 0 0 1
13904 0 13 0 5.02 4.016 0.609 0 0 0
8816 805 4 0.033 7.287627260567186 10.90521619667767 0.07870743138448466 0 0 1
258 24 4 0.033 23.09482889983609 4.790885264240071 7.1364269826467925 0 0 0
13418 0 14 0 0.321 5.726 6.808 0 0 0
10659 973 3 0.132 22.490970437450038 0.00536465779569894 1.0112468342890644 0 1 1
8864 807 1 -0.1 5.823835649349541 10.780293625975402 6.757202998326456 0 0 1
8866 807 4 0.033 6.5122052042462935 10.019358067090469 7.150808941846304 0 0 1
104 13 4 0.033 19.10667126352527 8.3601273124943 11.601614188684703 0 0 0
8863 807 4 0.033 4.523648923717209 12.419439773273465 4.933029329885695 0 0 1
8830 806 5 0.068 8.224404225519429 6.19991129142811 5.710286483258667 0 0 1
8849 807 7 0.791 4.912398077711268 10.33708627473877 5.568677018390133 0 0 1
8860 807 1 -0.1 3.9747658745625816 11.541559817268652 5.301615002545321 0 0 1
8861 807 4 0.033 3.477557455398918 11.847584227972717 6.232707889778452 0 0 1
606 56 4 0.033 14.259514451816322 13.801557159265627 8.149040726440953 0 0 0
8968 816 4 0.033 14.578471791025533 6.530618918435989 1.3782981168563555 0 0 1
9273 846 6 0.034 8.5280930512412 14.010225472384498 6.002615225298648 0 0 1
1868 173 4 0.033 19.36174908095694 1.0083381985999385 9.414298516928353 0 1 0
13907 0 13 0 14.405 11.701 4.741 0 0 0
8813 805 6 0.034 11.643164468422482 9.797329798570269 1.3800639805377846 0 0 1
358 37 9 0.275 0.5233543366756451 11.857519927543109 6.470958086085768 1 0 0
162 16 3 0.132 13.208698009117914 4.580331487683828 11.75978903507389 0 0 0
602 56 3 0.132 17.04293699275536 16.44900821292081 10.481266832976218 0 0 0
10937 997 4 0.033 0.41481607523283176 0.21635834245944244 2.5889787902535093 1 1 1
4667 427 10 -0.8 5.411908347283016 3.858778696294869 6.382701572484834 1 0 0
10 5 5 0.068 8.433330042289395 10.572080648644985 9.281582132977306 0 0 0
158 16 7 0.791 15.145869002580241 5.846615210029155 10.501387926886181 0 0 0
9858 898 10 -0.8 23.298709166422242 10.519163819623259 0.6129270282284669 0 0 1
2129 197 4 0.033 0.6844979884788114 3.546890455265675 9.362538095942703 1 1 0
13501 0 13 0 10.841999990474484 12.193 9.535 0 0 0
10621 967 4 0.033 5.594604311672186 0.932591691798363 6.797361916825999 0 1 1
9365 854 4 0.033 18.717658936074418 14.102680135540647 2.722630211732784 0 0 1
8904 813 4 0.033 18.18742691437962 10.49320848209158 1.3512016809865275 0 0 1
795 75 10 -0.8 0.6722059042487979 10.094132484230043 5.622544767007369 1 0 0
9268 846 7 0.791 10.615260980444008 15.748475710838962 5.13335166087877 0 0 1
97 13 5 0.068 21.972252950399483 9.14473248035684 9.47811238482206 0 0 0
516 48 6 0.034 3.1385553044787344 15.237601209716976 9.370569053406381 0 0 0
13903 0 13 0 5.528 10.131 4.965000000000001 0 0 0
8851 807 5 0.068 6.499093646243074 9.482976756786634 4.445583049191531 0 0 1
8840 806 4 0.033 10.569468344818066 4.425854225937838 7.43612841622505 0 0 1
8850 807 2 -0.131 5.586519546350531 10.028850717279758 4.253982821712916 0 0 1
8853 807 3 0.132 4.868550808619414 9.723593735527471 2.972173602762438 0 0 1
8855 807 6 0.034 4.237302884149232 10.597477250152183 2.8493781170950894 0 0 1
9037 823 4 0.033 24.83154686739019 13.3686394513357 3.37580258477626 0 0 1
109 13 4 0.033 20.317154454830685 8.989031266847473 8.018591493371899 0 0 0
70 8 7 0.791 4.973511289613805 5.177033576142893 11.326757637409276 0 0 0
9464 863 9 0.275 24.414002188099627 15.634888255576408 5.439623386479837 0 0 1
1771 165 3 0.132 8.296363102526017 0.6528869192827725 8.263767921373978 0 1 0
14032 0 16 0 23.644999999999996 12.203 9.313 0 0 0
9270 846 5 0.068 10.5814438295622 15.070641156770899 7.2574190244335695 0 0 1
9357 854 2 -0.131 19.428040859735038 15.873013824536692 4.81338556204341 0 0 1
611 56 4 0.033 13.310279486664045 16.15324512613308 8.844974106243209 0 0 0
8954 815 4 0.033 15.907460104890223 9.842642640134711 2.884282081816129 0 0 1
369 37 4 0.033 1.4935990831205983 9.605269689758904 11.530337312598153 1 0 0
8946 815 4 0.033 14.10826664684762 9.624748955619332 6.984689688700294 0 0 1
14504 0 15 0 5.748999999999981 5.704000000000001 9.813 0 0 0
9057 824 1 -0.1 23.632457445889894 6.2960590941222465 1.2811026539824464 0 0 1
248 24 5 0.068 24.520495339650488 4.690367609698443 10.276642224981748 0 0 0
10696 975 9 0.275 18.21177704795476 1.4513826729505124 4.216967200531232 0 1 1
8833 806 6 0.034 8.479589520000136 4.7055989625648 7.7515790206816515 0 0 1
1870 173 1 -0.1 21.478934726738384 1.3721154684061798 11.184044967736579 0 1 0
9359 854 5 0.068 20.344734559902832 16.076755478198017 5.347840921343745 0 0 1
8937 815 7 0.791 14.951566781440464 10.261015212191259 4.880098596409507 0 0 1
14408 0 16 0 14.217999999999998 4.317 2.659 0 0 0
256 24 4 0.033 24.83661441393798 6.823704919761548 7.22285034492688 0 0 0
161 16 5 0.068 15.171109882921476 4.795913099295029 12.43563325801515 0 0 0
8888 808 4 0.033 6.776743448633661 7.497750451561575 1.6812485167045845 0 0 1
9620 878 7 0.791 0.46503057803277925 16.534894837277385 5.249149393063132 1 0 1
6953 633 10 -0.8 10.239912121874314 6.62704914698241 11.571126491390793 1 0 1
8835 806 1 -0.1 9.471549841810573 4.222266128563519 4.932676119752191 0 0 1
8836 806 4 0.033 10.13681091650798 3.4731988655477024 4.4808718806477446 0 0 1
8837 806 4 0.033 8.842682862832001 4.753753081584087 4.204767904765008 0 0 1
8838 806 4 0.033 8.83125726051964 3.5455180066821574 5.5156327350278485 0 0 1
1767 165 7 0.791 10.398192972665326 1.0789730673225246 9.974889890991628 0 1 0
10623 967 4 0.033 3.85924460790052 1.1581629437074656 7.2945322362215395 0 1 1
8875 808 6 0.034 4.071999954632242 3.895745363676694 0.029082937736098265 0 0 1
8805 805 8 -0.468 10.965478471496413 7.998609354790595 2.2566613062680667 0 0 1
365 37 6 0.034 1.2072309486044124 10.919208923000689 8.264402436421358 1 0 0
166 16 4 0.033 13.191241409860517 6.380946742598636 9.665132515505801 0 0 0
8828 806 7 0.791 10.090470941541977 5.396280368878182 5.719489520426018 0 0 1
8829 806 2 -0.131 9.023826847043935 6.2282673069108005 6.436647233268616 0 0 1
8834 806 6 0.034 8.94562879724068 6.053897217781695 8.522295937576063 0 0 1
8839 806 1 -0.1 11.137160334206415 4.878529420265028 6.611136162446085 0 0 1
8841 806 4 0.033 11.694383078840408 5.788431202244375 6.874542320357704 0 0 1
8942 815 6 0.034 12.596802334768563 9.63594103062499 3.4942105415937985 0 0 1
8944 815 1 -0.1 14.477469436434077 9.270788630660528 6.011960306405032 0 0 1
517 48 1 -0.1 5.197415437248943 14.533177250790267 12.035040074000241 0 0 0
14403 0 16 0 3.9439999962984684 8.792 6.223 0 0 0
9162 837 5 0.068 1.3685397343136083 9.827849351840719 0.6269408800601344 1 0 1
8882 808 4 0.033 7.859769693190556 4.148764978216247 0.24283466022033795 0 0 1
9638 878 4 0.033 2.3012174861542705 15.414147731562204 4.975495482063202 1 0 1
8902 813 1 -0.1 19.055798743373725 11.031683991891505 0.9465093399072606 0 0 1
695 64 4 0.033 24.379026164162116 13.659753553751703 10.658938731416283 0 0 0
8804 804 10 -0.8 0.6688173509854538 16.003593913783998 10.54243094499901 0 0 1
1869 173 4 0.033 18.934151549451123 0.21662608840594086 10.954020593972809 0 1 0
110 13 1 -0.1 20.052740671536817 11.056760301051638 9.643175618167017 0 0 0
9267 846 9 0.275 9.51596934812069 11.607412784402538 6.451463055272533 0 0 1
75 8 6 0.034 2.4980001228946964 6.785628889620752 11.290248377843882 0 0 0
13524 0 13 0 6.302 14.711 9.665 0 0 0
9320 848 4 0.033 3.7159706210967105 14.33303541475741 1.0111444917326426 0 0 1
9401 856 5 0.068 13.692363318284606 14.869896726475844 0.494104323910326 0 0 1
8 5 2 -0.131 8.89966225993837 9.899170272587732 9.986710658593154 0 0 0
9181 838 2 -0.131 0.9209313602627152 4.46991299617561 4.176971238158696 1 0 1
13902 0 13 0 10.712 5.729 4.793000000000001 0 0 0
8935 815 8 -0.468 11.590383571506706 11.508527805439469 3.8840811257906234 0 0 1
14932 0 15 0 24.735999999999997 15.659 0.288 0 0 0
10567 965 7 0.791 10.060016431116505 0.5495081944748151 1.1739602202636155 0 1 1
9191 838 1 -0.1 1.65430522878616 4.4855827876499825 6.666987970997925 1 0 1
8826 806 8 -0.468 6.97187020195206 6.173857513710884 7.871341705669102 0 0 1
9188 838 4 0.033 2.2064379239560354 6.959755090244181 5.187647218862292 1 0 1
364 37 6 0.034 1.712722642689235 12.508760225369125 8.961498698961607 1 0 0
13408 0 14 0 14.332 5.189 1.5980000000000003 0 0 0
10708 975 1 -0.1 13.87711245088583 1.7346971198762133 6.523703125939248 0 1 1
8808 805 2 -0.131 9.609727700530293 9.634137713826178 1.2858881002829676 0 0 1
103 13 4 0.033 19.544415562415217 9.952827563283286 12.105186244396354 0 0 0
8958 816 7 0.791 14.523494065495832 4.660260196713224 0.4170911004396976 0 0 1
8869 808 9 0.275 4.331452720171189 2.266165086657614 2.095992436147833 0 0 1
10579 965 4 0.033 11.216328600243358 0.3348836615489092 3.003580704239755 0 1 1
8871 808 2 -0.131 5.5671165847691215 4.80743067923691 1.3501843864399181 0 0 1
601 56 5 0.068 15.899608313658169 15.487358801521058 11.833380505334011 0 0 0
9366 854 4 0.033 17.48069317700811 14.114041064232776 4.149613349885063 0 0 1
512 48 5 0.068 6.087915147925608 15.818632589665945 9.563273869946206 0 0 0
8943 815 6 0.034 12.144116304155832 10.06307639956489 5.125460959264736 0 0 1
10700 975 5 0.068 16.126401775580714 0.17177493408529035 7.080796039554669 0 1 1
14501 0 15 0 10.864 10.733 9.627 0 0 0
14987 0 15 0 15.580999999999998 1.3440000000000003 5.495 0 0 0
8880 808 4 0.033 4.9435763245862505 7.107501212177668 0.02422272760096939 0 0 1
701 64 1 -0.1 23.570858462467957 16.298249737480027 9.723843573890804 0 0 0
14402 0 16 0 12.899999999999999 6.357 4.255 0 0 0
8915 814 9 0.275 20.69743750169366 5.627914175374824 8.762462996919039 0 0 1
7481 681 10 -0.8 10.412836190086878 4.9123756106112815 1.1066686373159318 0 1 1
10661 973 6 0.034 22.904056989311712 0.9858000065434348 0.7983344274786646 0 1 1
19 5 4 0.033 11.080399079126288 10.910946221386807 8.930314455400396 0 0 0
7482 682 10 -0.8 14.266131371289118 8.82007224787403 0.4319026809805255 0 0 1
14585 0 15 0 20.111 0.978 9.771 0 0 0
113 13 4 0.033 20.453759704441104 11.605077287674694 10.507081714663878 0 0 0
515 48 6 0.034 4.392478774300559 14.102678385855961 9.356984434075487 0 0 0
14905 0 15 0 19.997 11.27 0.954 0 0 0
9493 864 1 -0.1 23.103927425498956 14.631620579219627 0.9734896021800306 0 0 1
599 56 2 -0.131 16.039639974264905 15.266450633361098 10.785014566111904 0 0 0
523 48 4 0.033 3.0004118714242543 15.99037941060135 11.850814585859831 0 0 0
8947 815 4 0.033 15.296788333342954 8.622875067133725 6.353611659526958 0 0 1
9495 864 4 0.033 22.038765307153398 14.901344281511244 0.9515753129457194 0 0 1
8823 805 4 0.033 10.182505055046079 12.381821770758764 1.7204645588193606 0 0 1
14981 0 15 0 10.452999999999998 1.309 0.579 0 0 0
8886 808 4 0.033 8.061148767589424 7.006450217716836 0.5750763737977291 0 0 1
13908 0 13 0 15.270999999999999 4.628 0.578 0 0 0
508 48 8 -0.468 4.281728150361564 15.400022867849934 7.790649623807779 0 0 0
600 56 5 0.068 16.670695385354335 14.415422275312103 10.572882345601359 0 0 0
596 56 8 -0.468 17.997170212499167 16.528056820840593 11.458242048801255 0 0 0
169 16 1 -0.1 15.54673966974354 4.629824875255764 9.648016200368842 0 0 0
10614 967 6 0.034 6.580912212069219 0.6601763089586294 3.698769116783801 0 1 1
9370 854 4 0.033 17.633738304791017 14.195121482424488 6.138674892431297 0 0 1
8952 815 1 -0.1 15.495496938426943 9.352909058628748 3.7777295635569916 0 0 1
10627 967 4 0.033 2.112166618734526 0.12126099089525674 5.836028089803645 0 1 1
14008 0 16 0 17.469 4.335 11.735 0 0 0
9161 837 5 0.068 1.8285138258364753 11.47465019007003 0.48096594279898264 1 0 1
72 8 5 0.068 3.673701291953563 4.9688751854304485 9.741081172486558 0 0 0
614 56 4 0.033 13.59593604511794 14.760100683998072 11.499134633015197 0 0 0
13581 0 13 0 11.006 0.765 9.696 0 0 0
9274 846 6 0.034 9.541865364394015 13.014530969840086 5.068688579039849 0 0 1
598 56 7 0.791 14.768009613455133 14.973743524150288 9.935170429420415 0 0 0
13517 0 13 0 0.4749999995373086 9.404 11.221 0 0 0
8967 816 4 0.033 12.830376096550333 6.027401908917862 0.9389190764917538 0 0 1
69 8 9 0.275 1.619747117034211 7.597487283332341 9.515601380069727 0 0 0
9463 863 8 -0.468 23.888433117185272 16.25604033822993 5.928037608945285 0 0 1
8848 807 9 0.275 5.556268253669476 10.180945146317114 1.3153321219930403 0 0 1
14004 0 16 0 7.710999999999997 3.3810000000000007 12.215 0 0 0
10654 973 9 0.275 22.756176997668668 0.5139523287673844 2.798006492677834 0 1 1
9193 838 4 0.033 1.4854844798013216 3.4048174112917766 6.560937140123958 1 0 1
510 48 7 0.791 5.113535011744797 15.899505128573683 11.491658633782736 0 0 0
8936 815 9 0.275 10.850708547081176 11.490442092806337 4.478349500498979 0 0 1
74 8 3 0.132 3.238321994240848 7.049137347449041 10.542109302322348 0 0 0
14524 0 15 0 5.589000000000001 15.257 10.948 0 0 0
368 37 4 0.033 0.5298710478014496 9.145887625485269 10.05694182881425 1 0 0
608 56 4 0.033 15.437583715829433 15.139229907012252 7.769621017124887 0 0 0
357 37 8 -0.468 0.5506052759510625 12.485404090466037 7.182027795998576 1 0 0
14903 0 15 0 6.163 10.802 3.772 0 0 0
9 5 5 0.068 9.49824401277548 9.18934568519795 9.434144513605675 0 0 0
163 16 6 0.034 12.394578323606089 5.218263200543777 11.431951643534223 0 0 0
257 24 1 -0.1 23.39256266745632 4.315239800189009 8.081369868294829 0 0 0
8951 815 4 0.033 15.435277129941555 11.59174111260714 6.478465218052504 0 0 1
1785 165 4 0.033 11.875402256694736 0.41951776379880573 8.734678390296517 0 1 0
521 48 1 -0.1 3.918561500220776 16.49417056044439 12.183977251286837 0 0 0
1773 165 6 0.034 9.032947178813844 1.0622544765019992 7.580330163403838 0 1 0
8945 815 4 0.033 13.703648693430925 8.564163132270563 5.680776035337472 0 0 1
20 5 4 0.033 11.697272432089765 9.776377465142678 9.976462387454129 0 0 0
9280 846 4 0.033 12.734693687213328 16.344296789880996 5.384960556101802 0 0 1
374 37 1 -0.1 0.8509089922968146 12.25262459790088 11.567624062498435 1 0 0
112 13 4 0.033 20.762067428431667 11.352040412071222 8.85738520186228 0 0 0
13438 0 14 0 2.786 13.857000000000001 6.819000000000001 0 0 0
9316 848 6 0.034 8.133529218722536 16.30230600720907 0.7567863026949129 0 0 1
10709 975 4 0.033 12.838770815374227 1.9048619822045212 6.206383522295352 0 1 1
10609 967 7 0.791 4.203268438789755 0.2719737903652883 5.382007203382782 0 1 1
8953 815 4 0.033 16.356187028265232 8.785463059097152 4.1585428008751295 0 0 1
14483 0 16 0 2.515999997618621 0.191 3.571 0 0 0
14517 0 15 0 1.086 10.246 10.129 0 0 0
9190 838 4 0.033 0.5323331428986826 7.30506027366591 4.96610723649737 1 0 1
96 13 2 -0.131 21.408161011404797 9.070178824849867 10.396655975279419 0 0 0
6604 604 10 -0.8 10.592007703714694 16.53436109448463 0.5195488251082876 0 0 1
13987 0 13 0 16.274 0.011 5.5280000000000005 0 0 0
8948 815 1 -0.1 15.944236547225346 11.06893516599616 5.656616180479374 0 0 1
14001 0 16 0 10.565999990474484 14.132 8.224 0 0 0
10697 975 7 0.791 14.49060512707383 0.4607360933387598 5.853553038629754 0 1 1
6691 611 10 -0.8 10.806739164381314 15.249967768693491 10.739498844945155 0 0 1
105 13 4 0.033 18.264659132225077 9.863781513323358 10.897998209732863 0 0 0
99 13 3 0.132 22.144401709369596 9.502178358663842 11.627000959207725 0 0 0
696 64 4 0.033 24.620040879746117 14.837638739067074 11.960890581693455 0 0 0
5372 492 10 -0.8 19.67975555712161 16.576212078470608 8.868667856284643 0 0 0
9187 838 1 -0.1 1.207854681246079 6.613906122835739 5.489344914849165 1 0 1
14028 0 16 0 12.806 13.998000000000001 11.213 0 0 0
14512 0 15 0 24.717 5.670000000000001 10.612000000000002 0 0 0
18 5 1 -0.1 11.215351539254707 10.763475128836427 10.010981572583455 0 0 0
13912 0 13 0 24.326 4.598 0.975 0 0 0
14528 0 15 0 15.932 15.634 10.308 0 0 0
14926 0 15 0 20.92 15.095000000000002 5.433000000000001 0 0 0
603 56 6 0.034 17.29753086248605 16.402538356512263 9.42758383652615 0 0 0
9318 848 4 0.033 3.5004160156120987 15.29145182014441 2.4255797771404937 0 0 1
14438 0 16 0 2.72 12.72 7.806 0 0 0
555 54 9 0.275 18.519390441341535 13.332803141523062 12.436142880575963 0 0 0
9367 854 1 -0.1 18.66192554904357 13.810908389578737 6.0837902443843594 0 0 1
8926 814 4 0.033 18.73500195697469 3.912528366473021 3.000444428518196 0 0 1
1782 165 1 -0.1 11.48422283156983 1.3961239207944778 9.052515121857203 0 1 0
8924 814 4 0.033 19.495783804986555 2.9712525022301954 4.401939801134114 0 0 1
520 48 4 0.033 6.100661296528272 13.975180383493642 11.751160847700659 0 0 0
8930 814 4 0.033 19.081220910186875 6.475693258644123 2.7923531222615052 0 0 1
8914 814 8 -0.468 21.133339296371595 6.132812169837308 8.087430623773152 0 0 1
14404 0 16 0 6.6 2.261 0.682 0 0 0
13483 0 14 0 3.6140000000000003 0.688 4.313 0 0 0
8931 814 1 -0.1 17.978685542542998 5.473873799472604 5.05337484068539 0 0 1
8890 810 10 -0.8 9.316680475910475 9.947969477782257 5.226757515815098 0 0 1
13428 0 14 0 14.005000000000003 16.191 0.356 0 0 0
13508 0 13 0 15.371999999999998 5.437000000000001 11.291 0 0 0
8950 815 4 0.033 16.760783526902983 10.531061998354529 6.158357648717542 0 0 1
1873 173 4 0.033 21.537775733588955 2.276753077675764 10.562780285318574 0 1 0
73 8 5 0.068 4.733747483218241 6.102746519317357 9.357656842760543 0 0 0
10916 996 10 -0.8 23.056748014830745 2.0419420041547407 4.73750486008071 1 1 1
9157 837 8 -0.468 1.6151774081106323 10.228107974526095 3.00946934006171 1 0 1
8927 814 1 -0.1 19.779665769383772 6.343045046818305 3.630434619341684 0 0 1
509 48 9 0.275 3.4521888309293938 15.51772782560285 7.344991516926292 0 0 0
14406 0 16 0 19.188 4.212000000000001 7.947 0 0 0
8934 814 4 0.033 17.864112863528298 6.383341818765121 5.659627388221005 0 0 1
13918 0 13 0 0.875 6.582 5.683 0 0 0
9319 848 4 0.033 4.612636218969759 14.071917879744031 2.4929679364039488 0 0 1
8976 816 4 0.033 16.25861474941489 5.21085484908905 1.5621537433572898 0 0 1
2291 211 10 -0.8 15.889299408989329 10.465758592732309 9.508821105659353 0 0 0
1763 163 10 -0.8 10.17369011410839 1.0068451752830796 5.345207852392035 0 1 0
14024 0 16 0 7.621 15.316 7.707000000000002 0 0 0
1861 173 6 0.034 22.14577057002114 1.219121859926811 8.351700466423285 0 1 0
10919 997 7 0.791 0.007728675043079344 0.2499648902013454 0.4754982711234179 1 1 1
9179 838 9 0.275 0.4215585722730782 4.887240411814498 0.9899167200567961 1 0 1
111 13 4 0.033 19.105707402772776 11.548958843007195 9.381126461675583 0 0 0
9494 864 4 0.033 23.31059108851437 13.552941118121195 0.9342215259620111 0 0 1
8923 814 1 -0.1 19.488071469014425 3.891098406199512 3.800586996854612 0 0 1
9269 846 2 -0.131 10.515562601515887 14.705662986056252 6.2425635920651334 0 0 1
14508 0 15 0 14.425 6.218 10.498000000000001 0 0 0
168 16 4 0.033 13.921956016316427 7.724691673266111 10.181402451501544 0 0 0
8916 814 7 0.791 19.316253216138204 5.1613231784046105 4.6018847087166215 0 0 1
9278 846 4 0.033 11.914778644710534 14.75395999485861 3.565547669152721 0 0 1
5548 508 10 -0.8 4.815156326762012 11.416249618280814 11.082924316144188 1 0 0
14906 0 15 0 20.364 5.755 4.613 0 0 0
17 5 4 0.033 8.518032633428954 12.251331744672955 11.349735435317672 0 0 0
9368 854 4 0.033 19.258317712961325 13.98269020784861 6.990767862260858 0 0 1
13505 0 13 0 20.83 10.672999999999998 11.284 0 0 0
87 8 4 0.033 5.096775393034662 3.238724517149076 10.458157475115128 0 0 0
9416 856 4 0.033 16.753303703580933 15.324805151933967 0.8993272792957924 0 0 1
9414 856 4 0.033 15.5249766170648 14.541267045997156 1.8871120544845574 0 0 1
108 13 4 0.033 19.529123593855175 7.7790480839218805 9.227477541359217 0 0 0
9180 838 7 0.791 0.8103750542920678 5.1026298729519155 5.630769445798206 1 0 1
68 8 8 -0.468 2.5589275269048293 7.597833867031161 9.379435765476265 0 0 0
14902 0 15 0 9.257 6.062 5.275 0 0 0
8974 816 4 0.033 16.44498202835233 3.6921902794825363 0.5518117722773301 0 0 1
8874 808 3 0.132 4.771701362032663 3.6027051082519663 0.8048215894043412 0 0 1
9271 846 5 0.068 11.395126227960299 14.095039538630939 6.097694400521017 0 0 1
8917 814 2 -0.131 20.17411253407696 5.014519413225865 5.962167898907557 0 0 1
14 5 1 -0.1 9.46128515453576 12.131738473648781 10.79857923761226 0 0 0
9356 854 7 0.791 19.328804002944302 14.361693058547793 4.873581042347367 0 0 1
8921 814 6 0.034 20.83766094859957 6.9978406188807405 6.261158576797042 0 0 1
10617 967 4 0.033 5.063985788127473 1.971967490704845 4.5066751784651045 0 1 1
13504 0 13 0 6.192 4.46 10.595000000000002 0 0 0
9407 856 4 0.033 13.607367340268642 16.378042727116867 2.567597030182633 0 0 1
14021 0 16 0 9.583 16.087 10.455 0 0 0
1855 173 7 0.791 20.98786655981535 0.026172014476791947 10.684739520718578 0 1 0
10615 967 6 0.034 7.002427541913421 0.13901234504228563 5.386819400127463 0 1 1
8868 808 8 -0.468 4.055961735562039 3.1520950548831044 1.8964071635447097 0 0 1
78 8 4 0.033 3.2136927818482572 4.232117667930435 11.98441714750163 0 0 0