LAMMPS data file via write_data, version 29 Sep 2021, timestep = 5000000

15000 atoms
16 atom types
10000 bonds
8 bond types
18500 angles
13 angle types
24000 dihedrals
10 dihedral types

0 49.73967 xlo xhi
0 49.74841 ylo yhi
0 49.75219 zlo zhi
3.04621155345851e-15 3.04644301170355e-15 3.04644301170355e-15 xy xz yz

Masses

1 12.01
2 12.01
3 12.01
4 1.008
5 1.008
6 1.008
7 14.01
8 16
9 1.008
10 35.45
11 0.0001
12 0.0001
13 0.0001
14 0.0001
15 0.0001
16 0.0001

Bond Coeffs # harmonic

1 340 1.099
2 490 1.498
3 490 1.516
4 340 1.0805
5 317 1.521
6 340 1.085
7 450 1.395
8 553 0.949

Angle Coeffs # harmonic

1 35 110.01
2 35 108.9
3 51.8 110.2
4 35 106.4
5 70 116.6
6 35 108.3
7 80 109.6
8 35 109.3
9 35 111.6
10 35 110.9
11 35 108.73
12 35 108.6
13 35 107.4

Dihedral Coeffs # opls

1 0.1 0.55 0.65 0
2 0 0 0.825 0
3 0 0 0.94 0
4 0 1 0.7 0
5 -6 -5 3.2 0
6 -0.5 -2.5 0.25 0
7 -6 -7 0.75 0
8 6 -3 2 0
9 -0.356 -0.174 0.35 0
10 -3 1 -2 0

Atoms # full

8823 805 4 0.033 8.985445405094374 12.233904573270936 2.8771859804418956 0 0 1
9312 848 5 0.068 5.86796706471909 13.324961009551982 0.2576831608522676 0 0 1
5108 468 10 -0.8 5.1140023889123345 10.796929235310152 1.5688120229188165 1 0 1
9028 823 5 0.068 24.432327317903688 8.625513972448593 6.232980850934635 0 0 1
9166 837 1 -0.1 1.4569434622126247 11.687678384829967 2.5033825965395757 1 0 1
10626 967 4 0.033 6.513494237426944 2.0322117270968767 6.814200725806042 0 1 1
10613 967 3 0.132 5.18657463116362 1.2734836351869319 3.780919596274135 0 1 1
8972 816 4 0.033 13.176695913997007 6.289357233248711 2.2473468998184427 0 0 1
9029 823 3 0.132 23.004953485939666 9.021190852313717 4.932447331256052 0 0 1
10672 973 4 0.033 19.012563421250334 1.021912908864962 1.9639774618023775 0 1 1
10929 997 4 0.033 1.3063505517613498 0.3398527552017345 1.5949060199956169 1 1 1
9499 864 4 0.033 21.75147495830304 16.27603483303379 0.2207209982341047 0 0 1
9195 838 1 -0.1 0.2934733174670815 6.66249952582054 7.274792463551201 1 0 1
9168 837 4 0.033 1.0281506047486548 12.651206726354891 2.1942696761302476 1 0 1
8941 815 3 0.132 12.768252131923788 9.508451276027582 8.119352638920102 0 0 1
8854 807 6 0.034 6.741847838927937 9.372941967699525 5.261231720188342 0 0 1
2123 197 3 0.132 0.5605046844612748 3.6627302552272196 10.219923881264997 1 1 0
8188 748 10 -0.8 0.01909046623129093 7.039699568863831 11.390022143452798 1 1 1
9503 864 4 0.033 22.372744731562634 13.840220214635899 2.149805113560595 0 0 1
4 4 10 -0.8 0.6877966509392961 15.574519091708082 10.34375381269362 0 0 0
14991 0 15 0 24.457 0.972 5.906 0 0 0
8897 813 5 0.068 17.459008902068017 12.914544454831248 0.4219796709164689 0 0 1
9619 878 9 0.275 3.68707998029727 15.513707359380344 5.644576968890666 1 0 1
10710 975 4 0.033 16.103191280810737 0.25598699745369985 5.308060408629658 0 1 1
9486 864 7 0.791 23.53915009191126 15.378611117256053 0.8467778793628504 0 0 1
10713 975 4 0.033 15.156235266693406 2.0900794531047846 6.562731132065059 0 1 1
8970 816 4 0.033 13.178401992912795 6.964236289528466 0.6456498849833601 0 0 1
8852 807 5 0.068 5.589532076988101 11.053164648749435 7.220819383284595 0 0 1
9277 846 4 0.033 12.28919719117957 14.43538159646399 5.020924589855123 0 0 1
10624 967 1 -0.1 5.561851794340761 1.4846221186721729 6.862400648414431 0 1 1
10670 973 1 -0.1 19.593662059604032 1.5119266205957365 1.170244640864371 0 1 1
14906 0 15 0 20.364 5.755 4.613 0 0 0
8907 813 4 0.033 19.225199035138647 13.372094066372815 2.118282763691164 0 0 1
8845 806 4 0.033 11.590110588174934 5.193069330594197 6.582525115220077 0 0 1
8856 807 1 -0.1 3.9192391901856056 9.790610336854662 4.67496354024532 0 0 1
8857 807 4 0.033 4.825564079004186 9.669052939709026 4.065373571258579 0 0 1
8859 807 4 0.033 3.438566932352004 8.837984991190115 4.938136730304191 0 0 1
8858 807 4 0.033 3.199958673577454 10.058766090954917 3.888497442467908 0 0 1
8939 815 5 0.068 14.887216075027256 9.772652623756626 8.078072168588085 0 0 1
9317 848 1 -0.1 6.569717821883129 15.020372790617397 2.6107746236406455 0 0 1
8914 814 8 -0.468 17.555054664932587 8.44722652257265 4.691149195122847 0 0 1
8938 815 2 -0.131 14.14097534718863 9.610079376327787 7.313758868339239 0 0 1
10575 965 4 0.033 7.547413346496184 2.1752727599975383 0.8615520629926111 0 1 1
9031 823 6 0.034 23.773769180783386 8.750368899844252 4.216344799072536 0 0 1
1864 173 4 0.033 20.353719080152736 1.5199227275367782 11.085508718410585 0 1 0
8971 816 4 0.033 14.335505191801026 7.486344578688801 1.9406117735752206 0 0 1
9397 856 9 0.275 14.98333759421201 14.530306256764868 4.3177896583886035 0 0 1
9159 837 7 0.791 1.037915136184023 10.813335364496558 1.259046551175285 1 0 1
8808 805 2 -0.131 8.925699678959337 9.877826967743475 0.35835224588295084 0 0 1
8862 807 4 0.033 4.833975069333393 12.783787901069044 5.9027921168362 0 0 1
8878 808 4 0.033 6.985283969446969 5.389844320711805 2.130981015928973 0 0 1
1763 163 10 -0.8 10.289097160930329 6.6505057849599325 0.4747863896065677 0 1 0
4579 419 10 -0.8 14.707018023732111 5.563603034507143 5.895443861106109 0 0 1
14418 0 16 0 0.888 6.280000000000009 7.98 0 0 0
10035 915 10 -0.8 9.781047506175215 15.399042794514637 1.2331919535096902 1 0 1
2291 211 10 -0.8 14.790746693669506 15.508015785893404 6.148555244961791 0 0 0
1777 165 4 0.033 7.968186503608143 0.47125049960342824 10.96548738417271 0 1 0
10625 967 4 0.033 4.791258865711873 2.129639147443686 6.417495631564308 0 1 1
9026 823 2 -0.131 23.886166604848658 9.541317768245522 6.058361122257405 0 0 1
510 48 7 0.791 5.220870685467673 15.616863822352093 10.550568731438757 0 0 0
10580 965 4 0.033 9.752235550934007 1.831874316145535 2.5845298922710414 0 1 1
6956 636 10 -0.8 5.067312294569892 0.039598136910718076 10.355021366426607 1 0 1
9170 837 1 -0.1 1.937591121076941 10.922335379494365 0.06244362767219762 1 0 1
8940 815 5 0.068 14.236204777738717 8.70396828354234 6.732919722748554 0 0 1
8881 808 1 -0.1 4.2923534741930895 4.667134577552354 2.3404358125202585 0 0 1
8904 813 4 0.033 16.80718398883052 11.929435800245347 2.3516511960440494 0 0 1
689 64 5 0.068 24.66002562082674 15.37197054354243 9.037869704758354 0 0 0
9059 824 4 0.033 22.494537809468664 4.290855742886764 1.1419100417487622 0 0 1
9192 838 4 0.033 0.7235810896319306 4.079129266295076 7.61874455760755 1 0 1
8977 817 10 -0.8 24.191251950619513 8.44833766778985 9.756576322528588 0 0 1
9041 823 4 0.033 23.571293262826543 12.104117671439115 6.73909507231055 0 0 1
249 24 5 0.068 23.133336998372556 4.608714743181965 11.464573950104066 0 0 0
519 48 4 0.033 3.1502224578645572 16.029521318279848 10.29211799058758 0 0 0
10714 975 4 0.033 15.387984116307088 1.0415972808827263 7.977574159287123 0 1 1
4316 396 10 -0.8 4.2820428440942555 10.602135069036574 10.424661159592073 1 1 0
9169 837 4 0.033 2.505169388765203 11.843517180074594 2.7944799246449223 1 0 1
8825 805 4 0.033 8.50602829561373 12.427224805288482 1.2306997342997044 0 0 1
2117 197 8 -0.468 1.4984723524922519 4.674195695489272 10.205281570525347 1 1 0
8844 806 4 0.033 10.87773094203492 5.584816652801222 8.138990391057053 0 0 1
8831 806 5 0.068 9.100436627346955 4.72315480644266 5.281879299749593 0 0 1
8843 806 1 -0.1 10.629781018596582 5.318200028516071 7.10205390968096 0 0 1
8846 806 4 0.033 10.210700274125355 4.305874631626353 7.1879001809975405 0 0 1
108 13 4 0.033 19.153057876100537 7.878654590362552 11.234242890181527 0 0 0
10615 967 6 0.034 4.928006377255892 2.116782142701881 4.412754242258175 0 1 1
224 23 9 0.275 24.2417580610363 9.686202972556917 11.623267757603317 0 0 0
247 24 2 -0.131 23.639776330265224 5.135364369121833 10.668559245966751 0 0 0
8965 816 1 -0.1 14.008084909616134 4.366360929120806 0.2812517704209054 0 0 1
8885 808 1 -0.1 4.640419730980543 7.001274485691201 2.1586427454520587 0 0 1
10612 967 5 0.068 7.1548339937601275 1.2221812054220622 4.699572441770449 0 1 1
8955 815 4 0.033 12.878830710354237 11.98668282844934 7.345025479337788 0 0 1
14004 0 16 0 7.710999999999997 3.3810000000000007 12.215 0 0 0
1771 165 3 0.132 9.478291045617482 1.2371080910946066 8.927775783630029 0 1 0
8842 806 4 0.033 11.254644303750153 7.496497151185028 5.681778600350597 0 0 1
10572 965 6 0.034 12.118182621194538 0.6986797282613922 0.7806483138489714 0 1 1
9278 846 4 0.033 11.133957304995935 14.745655082008321 3.703275154691952 0 0 1
10614 967 6 0.034 4.2405467478257854 0.8119514302694795 3.517776601350003 0 1 1
10705 975 4 0.033 12.922254540130222 0.3887411338938342 4.58119855077883 0 1 1
8867 807 4 0.033 2.364799243212047 11.585764155955745 6.567647602513395 0 0 1
14938 0 15 0 1.5459999999999994 15.069 4.867000000000001 0 0 0
2120 197 2 -0.131 1.1343502524861215 2.2053855221881866 10.335300137876601 1 1 0
258 24 4 0.033 23.29410499517628 2.572794593091823 10.24907856140217 0 0 0
8865 807 4 0.033 3.640244171599209 11.765690774127926 7.7104400553110155 0 0 1
10673 973 4 0.033 18.95911309526643 2.3264009786811384 0.793707616248117 0 1 1
9311 848 2 -0.131 6.329626141543823 14.271567740980931 0.016256722808464096 0 0 1
8832 806 3 0.132 10.516079892207188 5.573949023342664 3.910229118283983 0 0 1
9488 864 5 0.068 24.85647086772017 16.43793412766294 1.9234335464673875 0 0 1
9401 856 5 0.068 13.58171192867783 15.468231832440347 1.6192583621169068 0 0 1
9946 906 10 -0.8 24.70420574678609 4.831098982198864 4.7708126431954065 0 0 1
523 48 4 0.033 3.8620550514520122 14.022982643917267 10.902741374536093 0 0 0
9067 827 10 -0.8 0.5068041899858629 10.108347440272315 5.49557412878767 1 0 1
3699 339 10 -0.8 10.113472251591777 11.307389770193195 6.602493232133101 0 1 0
9324 848 4 0.033 3.948762696395831 14.362417087362966 1.5436622350390394 0 0 1
245 24 9 0.275 20.809153726276637 4.7329998173451076 9.563579975477493 0 0 0
609 56 1 -0.1 15.04772175693655 14.83300155567075 11.33009427628704 0 0 0
16 5 4 0.033 8.268519269659851 11.806949254726755 9.564510150167003 0 0 0
8864 807 1 -0.1 3.272538180079693 11.083885005779718 6.93086697513497 0 0 1
8866 807 4 0.033 2.908180470172638 10.141249148838527 7.362702627471457 0 0 1
2121 197 5 0.068 1.7483837365643131 1.9016028594248837 9.499741045620647 1 1 0
8863 807 4 0.033 3.43464772895032 12.43974826406343 4.767243969846252 0 0 1
8830 806 5 0.068 8.537657299907835 6.0750843232574 4.420535074152127 0 0 1
8849 807 7 0.791 4.240411209519615 10.762111901723141 5.792285309109672 0 0 1
8860 807 1 -0.1 4.388551787676765 12.08441078105158 5.181494264119654 0 0 1
8861 807 4 0.033 5.0782653764155175 12.085621833176493 4.325868943808408 0 0 1
10298 938 10 -0.8 19.441282076776357 4.908660475408876 0.510453287252001 0 1 1
3697 337 10 -0.8 18.28177280899219 15.43111474440205 10.756745241530504 0 1 0
1857 173 5 0.068 19.37253836484386 1.0537583369559276 9.19006101792131 0 1 0
10937 997 4 0.033 0.31249240055760347 3.3664004343836513 1.6161025174588814 1 1 1
9318 848 4 0.033 6.2880365771605895 13.99055716814736 2.871420789517329 0 0 1
107 13 4 0.033 20.809947564586466 7.790174455391898 11.272439534902652 0 0 0
2132 197 4 0.033 1.7490512711319361 0.07859456181597849 11.796686477382062 1 1 0
9024 823 9 0.275 22.977412769820692 7.119846204221845 4.757985025906288 0 0 1
10655 973 7 0.791 20.104594389501557 0.502785747418049 0.11569076686768934 0 1 1
8884 808 4 0.033 3.3485469501993683 5.072372958639337 2.731347542908896 0 0 1
10608 967 9 0.275 5.027817227331829 1.3460615277641816 1.9206274685981288 0 1 1
9241 841 10 -0.8 0.7523773621899514 15.859368477643367 1.0754928279067981 0 0 1
9283 846 1 -0.1 10.646639575691832 15.142915317877527 7.236465672002492 0 0 1
8807 805 7 0.791 9.593160738349491 10.677569748303636 1.4781474092751408 0 0 1
1856 173 2 -0.131 19.040260588772696 0.11763396544080536 9.61519968088962 0 1 0
9279 846 1 -0.1 9.086065428235326 15.521486622221211 5.375434169297745 0 0 1
9363 854 1 -0.1 20.258109530314552 14.266501483505394 6.023553137842829 0 0 1
9268 846 7 0.791 10.606479431162088 15.50877118133113 5.68779148449676 0 0 1
246 24 7 0.791 24.724997320095305 4.178157368519952 10.189418424169494 0 0 0
8974 816 4 0.033 15.453441360062458 4.873241800387478 2.7913181591926324 0 0 1
366 37 1 -0.1 1.1581054263648 11.950842920403302 11.063675884454137 1 0 0
6426 586 10 -0.8 23.118933440875352 11.293645733659945 1.4693713722630108 0 1 1
8911 813 4 0.033 18.505647550978654 9.656947843762973 0.3520319641174592 0 0 1
244 24 8 -0.468 21.68459886868498 4.428170910468812 9.360414765344814 0 0 0
8851 807 5 0.068 5.301718180215685 9.302456849558585 7.1454779993179125 0 0 1
8840 806 4 0.033 10.635742723231996 8.05493160846923 7.152465780445492 0 0 1
8850 807 2 -0.131 5.465944544033565 10.200934396270453 6.568201662060012 0 0 1
8853 807 3 0.132 6.8540764897584925 10.1555341283638 6.004319194121842 0 0 1
2118 197 9 0.275 1.0834881538829864 5.29860856700117 10.787087053424857 1 1 0
166 16 4 0.033 13.318247256349014 3.866728006017355 9.920478671908521 0 0 0
260 24 4 0.033 24.079260702664396 2.9666424798048143 8.633720573639234 0 0 0
8895 813 7 0.791 18.61669771776007 11.437057796892834 1.2542222196836847 0 0 1
687 64 2 -0.131 24.705506312184774 15.885295591435218 9.987558662806762 0 0 0
1765 165 8 -0.468 9.5855756805587 2.025120145526046 7.727344153182891 0 1 0
14001 0 16 0 10.565999990473793 14.132 8.224 0 0 0
95 13 7 0.791 19.854829681903187 8.927484154842979 9.521603995701838 0 0 0
695 64 4 0.033 21.92704034321836 16.45056727237089 10.614262447211354 0 0 0
10797 983 4 0.033 23.926743019198028 1.7656877238984974 4.174003980742087 0 1 1
8954 815 4 0.033 14.399516925927989 12.210634131692183 7.881265117146804 0 0 1
8920 814 3 0.132 17.709857080810732 7.0809777815461254 4.905687522679988 0 0 1
8946 815 4 0.033 13.87189069558581 11.236930444842667 4.315051142122153 0 0 1
1782 165 1 -0.1 10.26739928521987 0.055774443030312336 11.83605021657684 0 1 0
9191 838 1 -0.1 1.356762659816765 4.513323133283907 6.832387388619738 1 0 1
8887 808 4 0.033 5.119678913205586 7.847796734206328 1.6472606033190402 0 0 1
9618 878 8 -0.468 3.023183711431125 14.947358657615252 5.271626813600083 1 0 1
8833 806 6 0.034 10.97234710823472 6.487396765042994 3.5432707834168937 0 0 1
8877 808 1 -0.1 6.3917980307321836 5.469131367521812 1.2094123608954281 0 0 1
251 24 6 0.034 22.043184831302867 6.238925448640617 10.455089676051054 0 0 0
8937 815 7 0.791 14.319204149940658 10.716604342788381 6.359273552624655 0 0 1
8827 806 9 0.275 10.11591966190277 5.066235868579688 2.0292135310888177 0 0 1
9399 856 2 -0.131 14.512750844276722 15.021813433292415 1.3008917676603071 0 0 1
10796 983 1 -0.1 24.328149658975068 0.9014731084035189 3.6264578680804296 0 1 1
24 5 4 0.033 8.581013019958219 8.773744193881953 10.469907182483512 0 0 0
13585 0 13 0 19.788 0.4089999999999999 11.168000000000001 0 0 0
9493 864 1 -0.1 24.468515665112037 14.379371641131263 0.24599756575578788 0 0 1
8835 806 1 -0.1 8.35972786063427 6.150825550255129 7.158042748079433 0 0 1
8836 806 4 0.033 8.373995467299297 6.674713383771757 8.12403390275014 0 0 1
8837 806 4 0.033 8.003599594527953 5.118362488635812 7.280491281538453 0 0 1
8838 806 4 0.033 7.547323712410808 6.677341015913622 6.637867814522073 0 0 1
9276 846 4 0.033 10.97224286426857 13.380248480155775 4.90650115231885 0 0 1
10577 965 4 0.033 8.631415594713532 3.3207292937023416 1.4282540841750295 0 1 1
1766 165 9 0.275 10.072107268739842 1.3824390271524762 7.226496456920361 0 1 0
9057 824 1 -0.1 23.477105723513006 4.6852501414727925 1.4365524076836722 0 0 1
7481 681 10 -0.8 9.97076921147104 0.3855097734966935 5.538576433691859 0 1 1
795 75 10 -0.8 9.00918248134653 6.25310377868951 10.942063824947933 1 0 0
8828 806 7 0.791 9.689330018689311 6.2464866495146225 6.3855075128364325 0 0 1
8829 806 2 -0.131 9.410109230192736 5.698386815818894 4.934740118073713 0 0 1
8834 806 6 0.034 11.260485869526711 5.159075248221184 4.581767702608967 0 0 1
8839 806 1 -0.1 10.293051535512799 7.640449625534326 6.194046131156291 0 0 1
8841 806 4 0.033 9.663386865996463 8.397972422198157 5.706724329953392 0 0 1
8942 815 6 0.034 12.522601932204871 10.43563105709171 8.626519719920664 0 0 1
8944 815 1 -0.1 13.783254985922936 10.3720802212082 4.987344699307606 0 0 1
8909 813 4 0.033 19.73938976685745 11.979843176787153 2.8581237716701176 0 0 1
9323 848 4 0.033 3.9429480995947928 15.977705135416995 2.0573005393670174 0 0 1
9286 846 4 0.033 11.659557196818362 14.782321770059639 7.46399809681445 0 0 1
8973 816 1 -0.1 15.787135554443452 5.3501392783755595 1.8591069510070397 0 0 1
14 5 1 -0.1 8.161934732754027 11.551083502716185 10.627982460198126 0 0 0
8 5 2 -0.131 10.536566683891289 11.562991966142341 10.868444811242776 0 0 0
9173 837 4 0.033 2.980326643745828 10.669859954154227 0.30068627165285694 1 0 1
8816 805 4 0.033 11.566101674256826 10.491933821858158 0.8891887520090611 0 0 1
10627 967 4 0.033 5.178976243652827 1.362565622975593 7.885293296742647 0 1 1
96 13 2 -0.131 21.109430878302494 9.7931264594512 9.072869820932775 0 0 0
14501 0 15 0 10.864 10.733 9.627 0 0 0
1768 165 2 -0.131 9.971735737094988 1.9781754213740166 10.187330211431124 0 1 0
10 5 5 0.068 10.584678761945108 11.843653148259932 9.826142198730524 0 0 0
102 13 1 -0.1 18.563695507579173 9.630790703304607 9.265394138787611 0 0 0
8870 808 7 0.791 4.889936079325688 5.660356004178041 1.4306331913915848 0 0 1
528 48 4 0.033 7.261176052526725 15.434966137410385 10.179678302782483 0 0 0
8818 805 1 -0.1 9.758846732742235 9.843400151660825 2.659911135643186 0 0 1
9284 846 4 0.033 10.029444488666002 14.248504051301625 7.400476823753276 0 0 1
8935 815 8 -0.468 12.644209227679529 8.443640692561207 9.012762577568502 0 0 1
14932 0 15 0 24.735999999999997 15.659 0.288 0 0 0
160 16 5 0.068 13.864591940559569 6.64823618866365 11.371045289624705 0 0 0
169 16 1 -0.1 16.046451786006966 4.037827422382825 11.384114444604585 0 0 0
9189 838 4 0.033 2.3428745526349664 6.802850393792706 5.828174659331724 1 0 1
8966 816 4 0.033 13.487977295089845 3.945691227352947 1.1532184125900105 0 0 1
11 5 3 0.132 11.935705618662086 11.084246850203224 11.353339858361826 0 0 0
13581 0 13 0 11.006 0.765 9.696 0 0 0
248 24 5 0.068 24.164758462957384 6.051377769705022 10.898327489111223 0 0 0
81 8 1 -0.1 5.496233427039644 7.622791836166056 11.97246624752556 0 0 0
9058 824 4 0.033 23.926300363324792 3.730379099407283 1.7435480399782253 0 0 1
14021 0 16 0 9.583 16.087 10.455 0 0 0
158 16 7 0.791 15.085262947580475 5.124049200355604 10.838505216987981 0 0 0
14902 0 15 0 9.257 6.062 5.275 0 0 0
9188 838 4 0.033 1.9476401691226959 5.490008377690378 4.598184447924455 1 0 1
10665 973 4 0.033 22.086561683547604 0.8389886796044248 0.4526806359176659 0 1 1
9040 823 1 -0.1 24.210404441434413 12.025494037800609 5.8485019050687175 0 0 1
14412 0 16 0 22.176 4.317 0.12400000000000001 0 0 0
8943 815 6 0.034 12.024018013939614 9.655933885333374 7.3437306707802374 0 0 1
610 56 4 0.033 15.725237450404935 14.655607820014474 12.177032844815145 0 0 0
14524 0 15 0 5.589000000000001 15.257 10.948 0 0 0
14987 0 15 0 15.580999999999998 1.3440000000000003 5.495 0 0 0
9372 854 4 0.033 19.582121297452016 14.039254322221984 8.601641731150705 0 0 1
9280 846 4 0.033 8.637466582023018 16.11357336897059 6.185368328728885 0 0 1
614 56 4 0.033 12.839345763689883 16.49249250230758 9.584292737114378 0 0 0
8915 814 9 0.275 17.75493291831226 9.089065771205703 5.36099399532154 0 0 1
14483 0 16 0 2.515999997618448 0.191 3.571 0 0 0
14597 0 15 0 1.1340000000000001 0.591 9.834000000000001 0 0 0
13918 0 13 0 0.875 6.582 5.683 0 0 0
93 13 8 -0.468 22.50530462179179 11.591843924344902 9.211076915175646 0 0 0
368 37 4 0.033 1.4243313777589195 11.755660550284817 12.111925945981335 1 0 0
97 13 5 0.068 20.91828764143526 10.089176215137082 8.051449704649023 0 0 0
9369 854 4 0.033 18.035226938917514 12.954378866871894 5.15515519247091 0 0 1
14585 0 15 0 20.111 0.978 9.771 0 0 0
9365 854 4 0.033 20.37345033856508 14.809058498950927 5.074801670986451 0 0 1
10578 965 1 -0.1 9.478749575755911 1.069555566963904 1.8416459555617504 0 1 1
22 5 1 -0.1 9.463695468915267 9.418512447988983 10.35612433787202 0 0 0
8947 815 4 0.033 12.69585424049741 10.212857849624502 4.98439640435984 0 0 1
1862 173 1 -0.1 20.0136584696203 0.6820679655970091 11.7101359204272 0 1 0
9396 856 8 -0.468 15.040254979313724 14.107717233430925 3.4699808547488162 0 0 1
14981 0 15 0 10.452999999999998 1.309 0.579 0 0 0
223 23 8 -0.468 24.463837524226903 10.459106337160675 12.127154663296169 0 0 0
9275 846 1 -0.1 11.222857219866542 14.439516206307134 4.755024482648154 0 0 1
8888 808 4 0.033 5.054870549378669 7.00598133689806 3.1764880124417085 0 0 1
9046 824 7 0.791 24.35877430741861 5.279055832769283 0.265698278445797 0 0 1
2119 197 7 0.791 0.24618540068653125 0.9521795942327699 10.487062915402575 1 1 0
85 8 1 -0.1 3.3307782333134477 6.4285952566356634 12.248524610048417 0 0 0
10607 967 8 -0.468 5.725178226390511 1.6510422914172447 2.487438990075767 0 1 1
8921 814 6 0.034 16.947135587825574 6.368693239910704 4.608817791075731 0 0 1
8952 815 1 -0.1 13.88925347098992 12.061815549681304 6.919347672724848 0 0 1
8871 808 2 -0.131 4.0358113349947775 5.752608945678083 0.05955622669010124 0 0 1
8847 807 8 -0.468 7.867583733594913 9.731445285899808 6.845376097539114 0 0 1
110 13 1 -0.1 19.892125892266723 7.69105857457379 8.584166718427243 0 0 0
168 16 4 0.033 13.784279369012294 5.427618939619259 9.167987358191832 0 0 0
172 16 4 0.033 16.556616826530917 3.4454315552437422 10.611715829277676 0 0 0
8879 808 4 0.033 6.738246247400916 6.387804928520538 0.7156377651190442 0 0 1
9502 864 4 0.033 23.669944747288543 14.631557704903324 2.8299672990488585 0 0 1
9625 878 6 0.034 1.9317628062770602 16.052704129160613 3.951012761384842 1 0 1
13906 0 13 0 20.392 4.977999999999999 6.022 0 0 0
73 8 5 0.068 6.081100994304326 5.095722507024091 10.632145168140385 0 0 0
9404 856 6 0.034 15.69796052910896 16.041285165786967 2.8023300344517468 0 0 1
13904 0 13 0 5.02 4.016 0.609 0 0 0
9504 864 4 0.033 22.309620318877265 15.705897994825985 2.4376137418877915 0 0 1
8896 813 2 -0.131 18.015290968086525 12.089811657275355 0.000261549827707647 0 0 1
9400 856 5 0.068 14.279491801394808 13.993881119052478 1.0633512231178286 0 0 1
9368 854 4 0.033 16.835224708603878 13.846922528318514 5.791206936489597 0 0 1
10579 965 4 0.033 8.540030213730605 0.5521193720481938 2.084270585008142 0 1 1
13517 0 13 0 0.474999999537275 9.404 11.221 0 0 0
8814 805 1 -0.1 10.860525346949673 11.33166077106772 0.9586270495648241 0 0 1
9177 837 4 0.033 0.882440073812354 8.735066298217841 0.8181452156415124 1 0 1
250 24 3 0.132 22.545012319473418 5.508879655049655 9.828649525156768 0 0 0
1770 165 5 0.068 9.465241307609316 2.9326062966621964 10.185023924821712 0 1 0
5 5 8 -0.468 12.924349668590349 11.97034711756114 10.936594812725627 0 0 0
8976 816 4 0.033 16.509111506749136 4.6328925528706 1.4442471338270195 0 0 1
69 8 9 0.275 5.260830493248697 2.08787808318367 10.590985198414806 0 0 0
105 13 4 0.033 18.501688279033797 10.490359984192697 9.947374037140785 0 0 0
9357 854 2 -0.131 18.857731780054944 15.928700966736468 7.045050471153934 0 0 1
8951 815 4 0.033 16.180799104277522 11.144863490106461 5.130054402393666 0 0 1
12 5 6 0.034 11.90561095489463 10.95445042731859 12.430127745050317 0 0 0
9285 846 4 0.033 10.390568949755636 16.03519141269126 7.824744656741838 0 0 1
690 64 3 0.132 24.17246992940659 14.886150030703293 10.960699078472459 0 0 0
8945 815 4 0.033 14.285797805472548 9.47792795907467 4.592701293625526 0 0 1
3785 345 10 -0.8 24.281753474099215 0.3675746659255613 11.939073335126986 0 1 1
522 48 4 0.033 4.904766385396846 14.0949040348477 9.374556432885942 0 0 0
692 64 6 0.034 23.12239956867124 14.726276036801256 10.739300454180416 0 0 0
14438 0 16 0 2.72 12.72 7.806 0 0 0
87 8 4 0.033 2.731488147061338 7.337319665378559 12.097288648841309 0 0 0
1772 165 6 0.034 10.136028908400403 0.37421856484671473 8.922531819153598 0 1 0
14032 0 16 0 23.644999999999996 12.203 9.313 0 0 0
9321 848 1 -0.1 4.501421081276875 15.300761403521705 1.3957447170590582 0 0 1
8953 815 4 0.033 14.048858642186538 12.798659659534948 6.119730373453248 0 0 1
100 13 6 0.034 20.54967160874196 11.644752845731361 9.926747536034405 0 0 0
8822 805 1 -0.1 8.652470288845711 11.658337535622913 2.002171080865395 0 0 1
1773 165 6 0.034 8.446445932831605 0.9022356192192668 8.908254839905693 0 1 0
613 56 1 -0.1 13.529540382183992 15.688701123802895 9.87644282672384 0 0 0
8902 813 1 -0.1 17.587587758017463 11.156452261286699 2.316052285882102 0 0 1
10671 973 4 0.033 20.445407213755434 1.934439055942579 1.7214382540057385 0 1 1
8948 815 1 -0.1 15.91084328716705 10.913172776616118 6.169883353324328 0 0 1
9332 852 10 -0.8 19.49386605745797 15.800048193798794 1.3144645860374564 0 0 1
9501 864 1 -0.1 22.86774033683727 14.820311620058666 2.1028903040768046 0 0 1
1868 173 4 0.033 21.82775583006278 0.1627749548800236 9.85804074278381 0 1 0
9327 848 4 0.033 7.554463038399642 16.57955940711519 0.7257235870168947 0 0 1
364 37 6 0.034 0.8307968075221481 11.71031057685988 8.331971989702879 1 0 0
13483 0 14 0 3.6140000000000003 0.688 4.313 0 0 0
77 8 1 -0.1 4.13132436815044 6.8659338335971425 10.032648746331706 0 0 0
9176 837 4 0.033 2.213063724867919 9.161900334098965 2.0933762963855367 1 0 1
9174 837 1 -0.1 1.2444282579455623 9.386937951403336 1.6255043639987035 1 0 1
606 56 4 0.033 11.822772330765 15.941173590559508 12.22775815906151 0 0 0
9180 838 7 0.791 0.5656454753942434 5.584181153868088 6.16938845364832 1 0 1
10935 997 4 0.033 0.9816507063938958 2.2854373750295442 2.813163038458296 1 1 1
106 13 1 -0.1 20.023313634149574 8.504782299369383 10.992540677801799 0 0 0
14926 0 15 0 20.92 15.095000000000002 5.433000000000001 0 0 0
9187 838 1 -0.1 1.5640663465899325 6.29056376037812 5.2460912090008085 1 0 1
14028 0 16 0 12.806 13.998000000000001 11.213 0 0 0
1774 165 1 -0.1 8.249300541281167 1.035717799883696 11.865572068553504 0 1 0
605 56 1 -0.1 12.722120224975423 15.309531426438113 12.229343924956092 0 0 0
8820 805 4 0.033 10.389716607292048 10.512613699119731 3.2615400079767056 0 0 1
8926 814 4 0.033 21.44083242270246 5.282432574718442 4.180518897183292 0 0 1
13422 0 14 0 10.189999990473792 14.467 3.958 0 0 0
8924 814 4 0.033 20.378375685302245 4.458798444515255 2.8624916839347576 0 0 1
10569 965 5 0.068 11.117885812649767 3.0116962055029437 0.3421368678574367 0 1 1
8930 814 4 0.033 17.332310567325028 4.466641318072111 4.944467931994189 0 0 1
257 24 1 -0.1 24.229140125765888 2.7593412933028856 9.702534560726143 0 0 0
14528 0 15 0 15.932 15.634 10.308 0 0 0
10927 997 4 0.033 1.241700066776018 1.5453111091905192 0.27723278957034053 1 1 1
8931 814 1 -0.1 19.84194605156442 4.954294121750803 6.06507100553972 0 0 1
8817 805 4 0.033 11.420501149728498 12.091603224977511 1.5214019184196377 0 0 1
1767 165 7 0.791 9.683061946647396 1.3662678638485806 11.594874035080782 0 1 0
9367 854 1 -0.1 17.902614549801005 13.96780496077469 5.559113589362303 0 0 1
8950 815 4 0.033 16.456623931358244 11.591936591590105 6.840110296730596 0 0 1
8883 808 4 0.033 4.254640725478315 3.7241540508554736 1.777260497349122 0 0 1
71 8 2 -0.131 5.297872051655637 5.079466499792429 11.376301286563256 0 0 0
9621 878 2 -0.131 0.5986958973097619 15.468662152435535 5.4453698118980975 1 0 1
78 8 4 0.033 4.9611984201750765 6.9094707343564625 9.31347251178764 0 0 0
8927 814 1 -0.1 18.226182018004938 4.133324820561154 4.39885369276981 0 0 1
252 24 6 0.034 22.999103821073433 6.167409409540146 9.0955981029431 0 0 0
9281 846 4 0.033 8.80626782793642 14.458720466061319 5.368928054695588 0 0 1
8934 814 4 0.033 20.056666245328874 3.9078973954261627 6.323430789173269 0 0 1
10610 967 2 -0.131 6.281180531606135 0.5867435371426808 4.7202757533652635 0 1 1
8980 820 10 -0.8 14.61143818935792 11.495270587561446 0.8360040102307952 0 0 1
8905 813 4 0.033 17.800630784613666 10.817235110410797 3.3394512206586655 0 0 1
175 16 4 0.033 16.786699631322815 5.4861064069503 9.554110584343785 0 0 0
99 13 3 0.132 21.42068652859477 11.00316132347622 9.843571466755101 0 0 0
9403 856 6 0.034 16.40482181861039 14.479868803033222 2.191154720380801 0 0 1
8958 816 7 0.791 14.824746434691058 5.71765051992259 0.7804661883319062 0 0 1
13505 0 13 0 20.83 10.672999999999998 11.284 0 0 0
521 48 1 -0.1 4.861238295952235 14.171857703560114 10.469994376482099 0 0 0
8928 814 4 0.033 18.309527062867218 3.076442933176506 4.688431043086737 0 0 1
14008 0 16 0 17.469 4.335 11.735 0 0 0
8923 814 1 -0.1 20.706472143510563 4.510823750411341 3.9100827419998256 0 0 1
1769 165 5 0.068 11.012210964297909 2.179445060624899 9.976659868086337 0 1 0
14081 0 16 0 10.636 2.193 7.743 0 0 0
14406 0 16 0 19.188 4.212000000000001 7.947 0 0 0
8916 814 7 0.791 19.417603063874935 5.0078626475914145 4.633211786079996 0 0 1
10712 975 1 -0.1 14.652966761989234 1.3802154973320957 7.234009714933907 0 1 1
14404 0 16 0 6.6 2.261 0.682 0 0 0
14905 0 15 0 19.997 11.27 0.954 0 0 0
14426 0 16 0 17.862 15.486 5.744 0 0 0
14408 0 16 0 14.217999999999998 4.317 2.659 0 0 0
7 5 7 0.791 9.298284382512124 10.706905352842938 11.084658729869703 0 0 0
8872 808 5 0.068 2.9882366878282074 5.6210689797274735 0.28926198574035084 0 0 1
9052 824 6 0.034 23.852806720635872 8.18263013398037 1.1736006483790815 0 0 1
8975 816 4 0.033 16.309300208660318 6.22595638321362 2.2690939459355617 0 0 1
13504 0 13 0 6.192 4.46 10.595000000000002 0 0 0
14904 0 15 0 4.717 5.51 0.583 0 0 0
80 8 4 0.033 3.395244074750157 6.109358614195486 9.726739109717197 0 0 0
9027 823 5 0.068 23.502157736984532 9.700278324571705 7.055732139362543 0 0 1
9622 878 5 0.068 0.36429318880606193 14.611082514248993 4.831291034812 1 0 1
13426 0 14 0 18.496 14.474000000000002 6.429 0 0 0
25 5 4 0.033 10.424259848749374 9.05550535657316 10.747714265421564 0 0 0
8917 814 2 -0.131 18.923234131271215 6.432775631380113 4.260568912178195 0 0 1
14407 0 16 0 13.490999999999998 13.976 4.412 0 0 0
13903 0 13 0 5.528 10.131 4.965000000000001 0 0 0
8908 813 4 0.033 20.61854436646857 12.407187940676407 1.4388451194693113 0 0 1
13926 0 13 0 19.958 14.849 6.614 0 0 0
14422 0 16 0 10.003999990473792 13.215 3.3780000000000006 0 0 0
14508 0 15 0 14.425 6.218 10.498000000000001 0 0 0
70 8 7 0.791 4.6593249185277825 6.460227533080238 11.431629992844584 0 0 0