LAMMPS data file
# Generated by Playmol on 17-Feb-2024 at 23:59:00

10 atom types
8 bond types
13 angle types
10 dihedral types

11000 atoms
10000 bonds
18500 angles
24000 dihedrals

-30.0000000 30.0000000 xlo xhi
-30.0000000 30.0000000 ylo yhi
-30.0000000 30.0000000 zlo zhi

Masses

1 12.01 # ca
2 12.01 # cs
3 12.01 # cw
4 1.008 # ha
5 1.008 # hs
6 1.008 # hw
7 14.01 # n
8 16.00 # o
9 1.008 # ho
10 35.45 # cl

# Elements: C? C? C? H? H? H? N? O? H? Cl?

Pair Coeffs # lj/cut/coul/long

1 0.066 3.50 # ca
2 0.066 3.50 # cs
3 0.066 3.50 # cw
4 0.030 2.50 # ha
5 0.030 2.60 # hs
6 0.030 2.20 # hw
7 0.170 3.25 # n
8 0.170 3.07 # o
9 0.000 0.00 # ho
10 0.148 3.77 # cl

Bond Coeffs # harmonic

1 340.0 1.099 # ca ha
2 490.0 1.498 # ca n
3 490.0 1.516 # cs n
4 340.0 1.0805 # cs hs
5 317.0 1.521 # cs cw
6 340.0 1.085 # cw hw
7 450.0 1.395 # cw o
8 553.0 0.949 # ho o

Angle Coeffs # harmonic

1 35.0 110.01 # ha ca ha
2 35.0 108.9 # ha ca n
3 51.8 110.2 # ca n cs
4 35.0 106.4 # n cs hs
5 70.0 116.6 # n cs cw
6 35.0 108.3 # cs cw hw
7 80.0 109.6 # cs cw o
8 35.0 109.3 # hs cs cw
9 35.0 111.6 # hw cw o
10 35.0 110.9 # cw o ho
11 35.0 108.73 # ca n ca
12 35.0 108.6 # hs cs hs
13 35.0 107.4 # hw cw hw

Dihedral Coeffs # opls

1 0.100 0.550 0.650 0.000 # cw cs n ca
2 0.000 0.000 0.825 0.000 # ca n ca ha
3 0.000 0.000 0.940 0.000 # cs n ca ha
4 0.000 1.000 0.700 0.000 # hs cs n ca
5 -6.000 -5.000 3.200 0.000 # o cw cs n
6 -0.500 -2.500 0.250 0.000 # o cw cs hs
7 -6.000 -7.000 0.750 0.000 # hw cw cs n
8 6.000 -3.000 2.000 0.000 # hw cw cs hs
9 -0.356 -0.174 0.350 0.000 # ho o cw cs
10 -3.000 1.000 -2.000 0.000 # ho o cw hw

Atoms

1 1 8 -0.468 -11.8951826 11.8666000 3.44786096 # O1
2 1 9 0.275 -11.5349550 12.7902126 3.66063905 # H1
3 1 7 0.791 -10.6687803 11.4121370 -0.138668999 # N1
4 1 2 -0.131 -10.6782846 11.5416508 1.37936699 # C4
5 1 5 0.068 -9.98049164 12.3332491 1.65150106 # H4A
6 1 5 0.068 -10.3061237 10.6029310 1.78285599 # H4B
7 1 3 0.132 -12.0447807 11.8221302 2.03823590 # C5
8 1 6 0.034 -12.4600554 12.7754393 1.66979098 # H5A
9 1 6 0.034 -12.7387314 11.0297976 1.77969301 # H5B
10 1 1 -0.100 -10.9782305 12.7439661 -0.774179995 # C1
11 1 4 0.033 -10.2348652 13.4736490 -0.437323987 # H1A
12 1 4 0.033 -11.9819136 13.0569782 -0.495714992 # H1B
13 1 4 0.033 -10.9201269 12.6294422 -1.85631001 # H1C
14 1 1 -0.100 -11.6772242 10.3759022 -0.608407974 # C2
15 1 4 0.033 -11.6224051 10.3150139 -1.69408298 # H2A
16 1 4 0.033 -12.6817036 10.6949806 -0.322034001 # H2B
17 1 4 0.033 -11.4402647 9.41130638 -0.160741001 # H2C
18 1 1 -0.100 -9.28559494 10.9758339 -0.575187027 # C3
19 1 4 0.033 -8.56610584 11.7162113 -0.223645002 # H3A
20 1 4 0.033 -9.28078365 10.9249296 -1.66090703 # H3B
21 1 4 0.033 -9.06933117 9.99766541 -0.144472003 # H3C
22 2 8 -0.468 24.4526768 -14.5803680 -18.6499901 # O1
23 2 9 0.275 25.1935120 -15.1931152 -18.3278065 # H1
24 2 7 0.791 24.7221985 -11.7220287 -16.1338329 # N1
25 2 2 -0.131 25.0374012 -12.6648083 -17.2884369 # C4
26 2 5 0.068 26.0358715 -13.0700369 -17.1258163 # H4A
27 2 5 0.068 25.0542889 -12.0652714 -18.1955051 # H4B
28 2 3 0.132 24.0497417 -13.8276167 -17.5175552 # C5
29 2 6 0.034 24.0065994 -14.4758472 -16.6259632 # H5A
30 2 6 0.034 23.0568218 -13.4277773 -17.6920166 # H5B
31 2 1 -0.100 24.8822556 -12.4419193 -14.8187113 # C1
32 2 4 0.033 25.9074078 -12.8196850 -14.7490072 # H1A
33 2 4 0.033 24.1644058 -13.2567825 -14.7588053 # H1B
34 2 4 0.033 24.6942539 -11.7317686 -14.0138273 # H1C
35 2 1 -0.100 23.3100834 -11.1697388 -16.2447681 # C2
36 2 4 0.033 23.1406536 -10.4968748 -15.4057512 # H2A
37 2 4 0.033 22.5954342 -11.9936438 -16.1876907 # H2B
38 2 4 0.033 23.2033825 -10.6357012 -17.1883888 # H2C
39 2 1 -0.100 25.7000427 -10.5661259 -16.1764774 # C3
40 2 4 0.033 26.7108917 -10.9700670 -16.1100082 # H3A
41 2 4 0.033 25.4900494 -9.92213631 -15.3264294 # H3B
42 2 4 0.033 25.5662327 -10.0220966 -17.1120148 # H3C
43 3 8 -0.468 -13.9530754 0.941484988 14.5011082 # O1
44 3 9 0.275 -13.2873278 1.07874501 13.7487526 # H1
45 3 7 0.791 -13.3715477 -2.73954105 15.3291607 # N1
46 3 2 -0.131 -13.1606779 -1.23562896 15.2063618 # C4
47 3 5 0.068 -12.2149410 -1.07192695 14.6902428 # H4A
48 3 5 0.068 -13.0729485 -0.841403008 16.2160110 # H4B
49 3 3 0.132 -14.2724934 -0.440279990 14.4912548 # C5
50 3 6 0.034 -14.3917532 -0.795464993 13.4536514 # H5A
51 3 6 0.034 -15.2132826 -0.590883017 15.0093622 # H5B
52 3 1 -0.100 -13.2985191 -3.38568711 13.9688072 # C1
53 3 4 0.033 -12.3228378 -3.16046309 13.5262909 # H1A
54 3 4 0.033 -14.1040001 -3.00952911 13.3422232 # H1B
55 3 4 0.033 -13.4080172 -4.46261311 14.0942564 # H1C
56 3 1 -0.100 -14.7118607 -3.05603909 15.9732008 # C2
57 3 4 0.033 -14.8072395 -4.13810492 16.0469360 # H2A
58 3 4 0.033 -15.5151730 -2.67216206 15.3406420 # H2B
59 3 4 0.033 -14.7541952 -2.60200405 16.9626770 # H2C
60 3 1 -0.100 -12.2692909 -3.31014490 16.1972332 # C3
61 3 4 0.033 -11.3107624 -3.06808710 15.7367611 # H3A
62 3 4 0.033 -12.4082689 -4.38708687 16.2450218 # H3B
63 3 4 0.033 -12.3374577 -2.87015295 17.1926537 # H3C
64 4 8 -0.468 25.2315159 -18.7089062 21.0527802 # O1
65 4 9 0.275 24.9741249 -19.6564026 21.3059578 # H1
66 4 7 0.791 27.1182461 -19.3113403 17.7891731 # N1
67 4 2 -0.131 25.9880657 -19.1965675 18.8044643 # C4
68 4 5 0.068 25.4528866 -20.1457844 18.8173637 # H4A
69 4 5 0.068 25.3108597 -18.4260750 18.4435806 # H4B
70 4 3 0.132 26.3921490 -18.8230610 20.2457485 # C5
71 4 6 0.034 27.0720825 -19.5848389 20.6633434 # H5A
72 4 6 0.034 26.9144497 -17.8726139 20.2385674 # H5B
73 4 1 -0.100 27.9886532 -20.4986515 18.1148853 # C1
74 4 4 0.033 27.3665085 -21.3994484 18.1139507 # H1A
75 4 4 0.033 28.4571037 -20.3526154 19.0855198 # H1B
76 4 4 0.033 28.7586250 -20.5801544 17.3480759 # H1C
77 4 1 -0.100 27.9653034 -18.0490894 17.7643051 # C2
78 4 4 0.033 28.7477436 -18.1786404 17.0183811 # H2A
79 4 4 0.033 28.4291115 -17.9070702 18.7428322 # H2B
80 4 4 0.033 27.3363667 -17.1960354 17.5118408 # H2C
81 4 1 -0.100 26.5120983 -19.5160542 16.4162998 # C3
82 4 4 0.033 25.8954315 -20.4151173 16.4448109 # H3A
83 4 4 0.033 27.3276634 -19.6353245 15.7077589 # H3B
84 4 4 0.033 25.9072113 -18.6451969 16.1617069 # H3C
85 5 8 -0.468 19.3358536 -19.9417381 14.1525850 # O1
86 5 9 0.275 18.5989761 -19.5694427 14.7412310 # H1
87 5 7 0.791 17.3667717 -20.8722897 11.0172071 # N1
88 5 2 -0.131 18.0522671 -20.0507011 12.1018200 # C4
89 5 5 0.068 17.3171921 -19.3579769 12.5109577 # H4A
90 5 5 0.068 18.8359833 -19.4726143 11.6179724 # H4B
91 5 3 0.132 18.7021961 -20.8403721 13.2568531 # C5
92 5 6 0.034 17.9419231 -21.4358044 13.7901907 # H5A
93 5 6 0.034 19.4433479 -21.5223770 12.8546543 # H5B
94 5 1 -0.100 16.1383114 -21.5450439 11.5755033 # C1
95 5 4 0.033 15.4664450 -20.7756844 11.9694357 # H1A
96 5 4 0.033 16.4279652 -22.2434025 12.3573561 # H1B
97 5 4 0.033 15.6469173 -22.0868549 10.7677479 # H1C
98 5 1 -0.100 18.3071728 -21.9207630 10.4447165 # C2
99 5 4 0.033 17.7741165 -22.4698792 9.67029667 # H2A
100 5 4 0.033 18.5965538 -22.6157284 11.2359715 # H2B
101 5 4 0.033 19.1854744 -21.4297581 10.0269814 # H2C
102 5 1 -0.100 16.9442329 -19.9386845 9.90188313 # C3
103 5 4 0.033 16.2809162 -19.1816578 10.3217936 # H3A
104 5 4 0.033 16.4227467 -20.5299854 9.15367413 # H3B
105 5 4 0.033 17.8321762 -19.4735985 9.47251892 # H3C
106 6 8 -0.468 5.15796804 21.1571827 22.6014996 # O1
107 6 9 0.275 4.64191914 20.4700851 22.0632706 # H1
108 6 7 0.791 3.52602792 24.3957176 21.4088268 # N1
109 6 2 -0.131 3.73930311 23.0548325 22.1000881 # C4
110 6 5 0.068 2.93576407 22.3873596 21.7896004 # H4A
111 6 5 0.068 3.64705801 23.2280655 23.1696606 # H4B
112 6 3 0.132 5.09609413 22.3622112 21.8561974 # C5
113 6 6 0.034 5.23207712 22.1520576 20.7817917 # H5A
114 6 6 0.034 5.89816999 23.0186825 22.1754494 # H5B
115 6 1 -0.100 3.43658996 24.2007370 19.9163837 # C1
116 6 4 0.033 2.61253500 23.5126171 19.7020836 # H1A
117 6 4 0.033 4.37836313 23.8053093 19.5427494 # H1B
118 6 4 0.033 3.23992705 25.1682835 19.4552193 # H1C
119 6 1 -0.100 4.65209198 25.3652782 21.7302742 # C2
120 6 4 0.033 4.44635391 26.3064442 21.2230473 # H2A
121 6 4 0.033 5.59451818 24.9599171 21.3556881 # H2B
122 6 4 0.033 4.70256615 25.5169296 22.8079834 # H2C
123 6 1 -0.100 2.22116590 24.9875069 21.8999767 # C3
124 6 4 0.033 1.42003906 24.2814579 21.6784039 # H3A
125 6 4 0.033 2.06144404 25.9236908 21.3713436 # H3B
126 6 4 0.033 2.29195189 25.1609612 22.9742222 # H3C
127 7 8 -0.468 15.8296671 14.4757013 0.434031010 # O1
128 7 9 0.275 16.8296242 14.4220114 0.593087971 # H1
129 7 7 0.791 15.6062841 13.3407059 -3.20405698 # N1
130 7 2 -0.131 15.8040676 13.3190022 -1.69352400 # C4
131 7 5 0.068 16.7899437 12.9007988 -1.49165297 # H4A
132 7 5 0.068 15.0554237 12.6458769 -1.28250599 # H4B
133 7 3 0.132 15.6671467 14.6700497 -0.961395979 # C5
134 7 6 0.034 16.4176369 15.3869677 -1.33528602 # H5A
135 7 6 0.034 14.6825027 15.0837336 -1.14992094 # H5B
136 7 1 -0.100 16.7349701 14.0920401 -3.86357689 # C1
137 7 4 0.033 17.6801472 13.6077404 -3.59787798 # H1A
138 7 4 0.033 16.7250595 15.1285887 -3.53438306 # H1B
139 7 4 0.033 16.5893612 14.0518332 -4.94278002 # H1C
140 7 1 -0.100 14.2795448 13.9834023 -3.57567906 # C2
141 7 4 0.033 14.1834583 13.9637222 -4.66001320 # H2A
142 7 4 0.033 14.2755299 15.0222788 -3.23874998 # H2B
143 7 4 0.033 13.4655256 13.4277010 -3.11138296 # H2C
144 7 1 -0.100 15.6125469 11.9131546 -3.71018696 # C3
145 7 4 0.033 16.5609779 11.4541740 -3.42872405 # H3A
146 7 4 0.033 15.5099392 11.9439783 -4.79181719 # H3B
147 7 4 0.033 14.7782030 11.3734655 -3.26107001 # H3C
148 8 8 -0.468 -25.8954563 15.6250572 -11.5550880 # O1
149 8 9 0.275 -25.9635181 15.6265068 -12.5667524 # H1
150 8 7 0.791 -26.8888721 12.0255966 -10.7608557 # N1
151 8 2 -0.131 -26.0940456 13.2311935 -11.2467403 # C4
152 8 5 0.068 -25.8380775 13.0631266 -12.2926044 # H4A
153 8 5 0.068 -25.1732731 13.2612638 -10.6690073 # H4B
154 8 3 0.132 -26.7762585 14.6078310 -11.1069403 # C5
155 8 6 0.034 -27.7131500 14.6327381 -11.6888475 # H5A
156 8 6 0.034 -27.0215664 14.7841549 -10.0653381 # H5B
157 8 1 -0.100 -28.0831070 11.7987251 -11.6528969 # C1
158 8 4 0.033 -27.7305374 11.6496029 -12.6785469 # H1A
159 8 4 0.033 -28.7509823 12.6550760 -11.5936880 # H1B
160 8 4 0.033 -28.6045589 10.9063263 -11.3076267 # H1C
161 8 1 -0.100 -27.3526993 12.2150440 -9.32545567 # C2
162 8 4 0.033 -27.9035110 11.3251629 -9.02525997 # H2A
163 8 4 0.033 -28.0194645 13.0784664 -9.27322960 # H2B
164 8 4 0.033 -26.4862309 12.3615484 -8.68142891 # H2C
165 8 1 -0.100 -25.9961128 10.8037271 -10.8250446 # C3
166 8 4 0.033 -25.6563759 10.6815042 -11.8541441 # H3A
167 8 4 0.033 -26.5854778 9.94524097 -10.5135098 # H3B
168 8 4 0.033 -25.1469193 10.9488468 -10.1565323 # H3C
169 9 8 -0.468 27.4525433 16.0777168 -13.5050726 # O1
170 9 9 0.275 27.3806782 16.7484570 -12.7480783 # H1
171 9 7 0.791 26.9243813 12.7964172 -11.6267977 # N1
172 9 2 -0.131 26.6580696 14.1507492 -12.2719040 # C4
173 9 5 0.068 26.2194996 14.8008051 -11.5151472 # H4A
174 9 5 0.068 25.9216824 13.9922476 -13.0561953 # H4B
175 9 3 0.132 27.8706665 14.8607607 -12.9087563 # C5
176 9 6 0.034 28.6442184 15.0567894 -12.1470537 # H5A
177 9 6 0.034 28.3026104 14.2218151 -13.6712332 # H5B
178 9 1 -0.100 27.7811222 12.9674387 -10.3979168 # C1
179 9 4 0.033 27.2666473 13.6392660 -9.70331955 # H1A
180 9 4 0.033 28.7500305 13.3718767 -10.6817303 # H1B
181 9 4 0.033 27.9163933 11.9900866 -9.93533611 # H1C
182 9 1 -0.100 27.6097126 11.8495569 -12.5989990 # C2
183 9 4 0.033 27.7664204 10.8977432 -12.0941277 # H2A
184 9 4 0.033 28.5796967 12.2639208 -12.8822575 # H2B
185 9 4 0.033 26.9800282 11.7149868 -13.4778547 # H2C
186 9 1 -0.100 25.5985374 12.1917543 -11.2137241 # C3
187 9 4 0.033 25.1064949 12.8817558 -10.5272865 # H3A
188 9 4 0.033 25.8045845 11.2453194 -10.7205629 # H3B
189 9 4 0.033 24.9869823 12.0356522 -12.1029549 # H3C
190 10 8 -0.468 20.6317577 12.0103254 25.3028679 # O1
191 10 9 0.275 21.6009483 12.1989784 25.5334682 # H1
192 10 7 0.791 19.7916508 15.0417976 23.1399536 # N1
193 10 2 -0.131 20.3912487 13.7207146 23.6052742 # C4
194 10 5 0.068 21.4742031 13.7922812 23.5068645 # H4A
195 10 5 0.068 20.0353413 12.9506264 22.9249840 # H4B
196 10 3 0.132 20.0412827 13.2726002 25.0394325 # C5
197 10 6 0.034 20.3952198 14.0180502 25.7715759 # H5A
198 10 6 0.034 18.9645195 13.1883192 25.1378193 # H5B
199 10 1 -0.100 20.4003601 16.1866074 23.9095554 # C1
200 10 4 0.033 21.4846058 16.1723652 23.7588501 # H1A
201 10 4 0.033 20.1547508 16.0888424 24.9645519 # H1B
202 10 4 0.033 19.9856224 17.1178188 23.5244122 # H1C
203 10 1 -0.100 18.2817631 15.0531321 23.3174572 # C2
204 10 4 0.033 17.9041615 16.0102558 22.9614620 # H2A
205 10 4 0.033 18.0428925 14.9507761 24.3782425 # H2B
206 10 4 0.033 17.8440094 14.2351284 22.7462807 # H2C
207 10 1 -0.100 20.1087704 15.2222662 21.6699295 # C3
208 10 4 0.033 21.1923046 15.1997623 21.5480576 # H3A
209 10 4 0.033 19.7100677 16.1847687 21.3600464 # H3B
210 10 4 0.033 19.6433506 14.4143677 21.1044331 # H3C
211 11 8 -0.468 -10.0830212 -2.89761591 -21.8900356 # O1
212 11 9 0.275 -11.0067530 -2.48233604 -21.9386158 # H1
213 11 7 0.791 -9.99301338 -4.86459208 -25.1606178 # N1
214 11 2 -0.131 -9.99952793 -3.70576501 -24.1714878 # C4
215 11 5 0.068 -10.8076496 -3.03093910 -24.4528160 # H4A
216 11 5 0.068 -9.05580235 -3.17866993 -24.2900429 # H4B
217 11 3 0.132 -10.1427622 -4.07385921 -22.6801510 # C5
218 11 6 0.034 -11.0955725 -4.60152483 -22.5048771 # H5A
219 11 6 0.034 -9.33305073 -4.73582602 -22.3931503 # H5B
220 11 1 -0.100 -11.3502722 -5.52013588 -25.1995163 # C1
221 11 4 0.033 -12.0943689 -4.76785088 -25.4803848 # H1A
222 11 4 0.033 -11.5784159 -5.94537687 -24.2248268 # H1B
223 11 4 0.033 -11.3266573 -6.31369591 -25.9459763 # H1C
224 11 1 -0.100 -8.93848228 -5.89594698 -24.7922840 # C2
225 11 4 0.033 -8.96831608 -6.69312620 -25.5332413 # H2A
226 11 4 0.033 -9.17197990 -6.31550884 -23.8113422 # H2B
227 11 4 0.033 -7.95725918 -5.42255878 -24.7819595 # H2C
228 11 1 -0.100 -9.67792320 -4.31906223 -26.5380135 # C3
229 11 4 0.033 -10.4300327 -3.57065010 -26.7902317 # H3A
230 11 4 0.033 -9.71465778 -5.14821005 -27.2398434 # H3B
231 11 4 0.033 -8.68329906 -3.87226391 -26.5240459 # H3C
232 12 8 -0.468 -15.0929451 18.9521179 -9.56788540 # O1
233 12 9 0.275 -15.3502388 18.3280087 -8.81132317 # H1
234 12 7 0.791 -16.4186840 22.2814293 -8.25186729 # N1
235 12 2 -0.131 -15.5672445 21.0285759 -8.41529560 # C4
236 12 5 0.068 -15.5402203 20.5153179 -7.45434189 # H4A
237 12 5 0.068 -14.5590334 21.3563061 -8.65737915 # H4B
238 12 3 0.132 -16.0083313 20.0337753 -9.50887012 # C5
239 12 6 0.034 -17.0251923 19.6602497 -9.30036926 # H5A
240 12 6 0.034 -16.0246296 20.5378532 -10.4689960 # H5B
241 12 1 -0.100 -17.7799816 21.9164047 -7.71611595 # C1
242 12 4 0.033 -17.6525841 21.4002018 -6.75913906 # H1A
243 12 4 0.033 -18.2962055 21.2816772 -8.43272877 # H1B
244 12 4 0.033 -18.3479557 22.8345871 -7.56832790 # H1C
245 12 1 -0.100 -16.5709515 23.0188713 -9.57262135 # C2
246 12 4 0.033 -17.1756248 23.9074459 -9.39881992 # H2A
247 12 4 0.033 -17.0864143 22.3742676 -10.2878723 # H2B
248 12 4 0.033 -15.5864429 23.2960052 -9.94804192 # H2C
249 12 1 -0.100 -15.7367592 23.1998768 -7.25912380 # C3
250 12 4 0.033 -15.6186647 22.6604252 -6.31867123 # H3A
251 12 4 0.033 -16.3722897 24.0708981 -7.12193108 # H3B
252 12 4 0.033 -14.7645988 23.4932728 -7.65652084 # H3C
253 13 8 -0.468 -2.31483293 -4.05534077 -0.471839994 # O1
254 13 9 0.275 -1.64150202 -3.73515511 -1.15901196 # H1
255 13 7 0.791 -5.59717607 -3.04417396 -2.13844204 # N1
256 13 2 -0.131 -4.29329491 -3.77357197 -1.83982897 # C4
257 13 5 0.068 -3.68096805 -3.74568701 -2.74087000 # H4A
258 13 5 0.068 -4.54728413 -4.80986977 -1.62987995 # H4B
259 13 3 0.132 -3.46640801 -3.24664998 -0.648737013 # C5
260 13 6 0.034 -3.17146993 -2.19759297 -0.820474982 # H5A
261 13 6 0.034 -4.06853724 -3.28433394 0.252496004 # H5B
262 13 1 -0.100 -5.30881691 -1.65102899 -2.63783789 # C1
263 13 4 0.033 -4.68443680 -1.72280300 -3.53421903 # H1A
264 13 4 0.033 -4.80558586 -1.08122301 -1.86003196 # H1B
265 13 4 0.033 -6.25609589 -1.17206597 -2.88432002 # H1C
266 13 1 -0.100 -6.48141909 -2.97094607 -0.903876007 # C2
267 13 4 0.033 -7.40013313 -2.45247412 -1.17323101 # H2A
268 13 4 0.033 -5.96819496 -2.40094995 -0.126376003 # H2B
269 13 4 0.033 -6.70170021 -3.97966290 -0.556073010 # H2C
270 13 1 -0.100 -6.33622313 -3.80420089 -3.22023392 # C3
271 13 4 0.033 -5.69146776 -3.86460590 -4.09775686 # H3A
272 13 4 0.033 -7.24437809 -3.25356889 -3.45144892 # H3B
273 13 4 0.033 -6.57610321 -4.80230904 -2.85235000 # H3C
274 14 8 -0.468 27.4601803 -7.84957695 -5.88216114 # O1
275 14 9 0.275 27.3061829 -6.84739399 -5.87867308 # H1
276 14 7 0.791 27.0306568 -8.66795540 -2.17816806 # N1
277 14 2 -0.131 26.7181244 -8.27272987 -3.61601996 # C4
278 14 5 0.068 26.1999264 -7.31430387 -3.59394097 # H4A
279 14 5 0.068 26.0368862 -9.02171898 -4.01279688 # H4B
280 14 3 0.132 27.9183216 -8.17774773 -4.58069515 # C5
281 14 6 0.034 28.6355515 -7.41768885 -4.22729588 # H5A
282 14 6 0.034 28.4295521 -9.13361263 -4.61481380 # H5B
283 14 1 -0.100 27.8066978 -7.56982422 -1.49606097 # C1
284 14 4 0.033 27.2149334 -6.64944220 -1.53090298 # H1A
285 14 4 0.033 28.7632751 -7.43426800 -1.99554598 # H1B
286 14 4 0.033 27.9756756 -7.86187696 -0.459890991 # H1C
287 14 1 -0.100 27.8246803 -9.96333599 -2.12421298 # C2
288 14 4 0.033 28.0111485 -10.2052345 -1.07916999 # H2A
289 14 4 0.033 28.7816944 -9.82070446 -2.63074994 # H2B
290 14 4 0.033 27.2535133 -10.7581911 -2.60272789 # H2C
291 14 1 -0.100 25.7234516 -8.86899471 -1.43999004 # C3
292 14 4 0.033 25.1533852 -7.94082022 -1.49403095 # H3A
293 14 4 0.033 25.9594078 -9.11202908 -0.407196999 # H3B
294 14 4 0.033 25.1722336 -9.68436241 -1.90949500 # H3C
295 15 8 -0.468 -16.7233677 1.87333798 0.559141994 # O1
296 15 9 0.275 -16.6822300 2.85563302 0.807138026 # H1
297 15 7 0.791 -19.5290222 0.659132004 2.84558296 # N1
298 15 2 -0.131 -18.7899837 1.36118305 1.71321905 # C4
299 15 5 0.068 -19.0430508 2.42032909 1.75521004 # H4A
300 15 5 0.068 -19.1728516 0.953952014 0.780439019 # H4B
301 15 3 0.132 -17.2550526 1.20737302 1.69281006 # C5
302 15 6 0.034 -16.8156757 1.61995900 2.61678100 # H5A
303 15 6 0.034 -16.9992046 0.154848993 1.63863504 # H5B
304 15 1 -0.100 -19.1998348 1.31378102 4.16333580 # C1
305 15 4 0.033 -19.4784851 2.37104607 4.10816097 # H1A
306 15 4 0.033 -18.1378517 1.20354795 4.37056208 # H1B
307 15 4 0.033 -19.7761002 0.819737971 4.94521523 # H1C
308 15 1 -0.100 -19.1693363 -0.816838980 2.90503097 # C2
309 15 4 0.033 -19.7300091 -1.27145898 3.72011900 # H2A
310 15 4 0.033 -18.1014194 -0.919502974 3.10951900 # H2B
311 15 4 0.033 -19.4244061 -1.29000795 1.95737505 # H2C
312 15 1 -0.100 -21.0180721 0.786143005 2.59920311 # C3
313 15 4 0.033 -21.2668896 1.84656096 2.54434204 # H3A
314 15 4 0.033 -21.5337257 0.316058993 3.43258309 # H3B
315 15 4 0.033 -21.2670441 0.285851002 1.66281605 # H3C
316 16 8 -0.468 3.15865111 -6.84984016 20.2105350 # O1
317 16 9 0.275 2.50500607 -6.27160311 20.7267609 # H1
318 16 7 0.791 2.93733811 -10.1236153 22.1617451 # N1
319 16 2 -0.131 2.57548690 -8.95843506 21.2492123 # C4
320 16 5 0.068 1.63369596 -8.53822708 21.6014233 # H4A
321 16 5 0.068 2.41728806 -9.36830425 20.2544842 # H4B
322 16 3 0.132 3.61971498 -7.82943106 21.1266270 # C5
323 16 6 0.034 3.80604696 -7.37031078 22.1122684 # H5A
324 16 6 0.034 4.55516911 -8.24175358 20.7645283 # H5B
325 16 1 -0.100 2.97228909 -9.66547966 23.5978127 # C1
326 16 4 0.033 1.99215698 -9.25263214 23.8574257 # H1A
327 16 4 0.033 3.75277710 -8.91858768 23.7238827 # H1B
328 16 4 0.033 3.18902493 -10.5278282 24.2277946 # H1C
329 16 1 -0.100 4.28342295 -10.7206678 21.7836189 # C2
330 16 4 0.033 4.48819685 -11.5521135 22.4560509 # H2A
331 16 4 0.033 5.06113195 -9.96419621 21.9089966 # H2B
332 16 4 0.033 4.24893188 -11.0660839 20.7509022 # H2C
333 16 1 -0.100 1.87475502 -11.1935539 22.0194263 # C3
334 16 4 0.033 0.910466015 -10.7552309 22.2790871 # H3A
335 16 4 0.033 2.12311792 -12.0010996 22.7032299 # H3B
336 16 4 0.033 1.86722398 -11.5518188 20.9895287 # H3C
337 17 8 -0.468 23.5365143 -12.6624680 -6.15523481 # O1
338 17 9 0.275 23.2875099 -13.3838873 -5.48766518 # H1
339 17 7 0.791 21.8706398 -9.60736179 -4.58520603 # N1
340 17 2 -0.131 22.8291359 -10.7674570 -4.82344913 # C4
341 17 5 0.068 22.8422050 -11.3804359 -3.92251396 # H4A
342 17 5 0.068 23.8196678 -10.3407087 -4.96214199 # H4B
343 17 3 0.132 22.5343418 -11.6652508 -6.04293823 # C5
344 17 6 0.034 21.5408688 -12.1343126 -5.94298077 # H5A
345 17 6 0.034 22.5326424 -11.0606642 -6.94331121 # H5B
346 17 1 -0.100 20.5148392 -10.1298847 -4.18249083 # C1
347 17 4 0.033 20.6282501 -10.7378578 -3.27916002 # H1A
348 17 4 0.033 20.0942173 -10.7181339 -4.99485922 # H1B
349 17 4 0.033 19.8665066 -9.27860355 -3.97638011 # H1C
350 17 1 -0.100 21.7355232 -8.74173069 -5.82771397 # C2
351 17 4 0.033 21.0515785 -7.92540789 -5.60135794 # H2A
352 17 4 0.033 21.3163834 -9.33986282 -6.63972378 # H2B
353 17 4 0.033 22.7142925 -8.35214138 -6.10562515 # H2C
354 17 1 -0.100 22.4171066 -8.75612831 -3.45787311 # C3
355 17 4 0.033 22.5241051 -9.38600636 -2.57401299 # H3A
356 17 4 0.033 21.7060013 -7.95545006 -3.27174091 # H3B
357 17 4 0.033 23.3835354 -8.34891033 -3.75668693 # H3C
358 18 8 -0.468 7.14932489 -4.61188793 -28.3978653 # O1
359 18 9 0.275 6.97549295 -5.60453415 -28.5098267 # H1
360 18 7 0.791 8.90435505 -4.55497599 -25.0081100 # N1
361 18 2 -0.131 8.63066292 -4.78240919 -26.4895515 # C4
362 18 5 0.068 8.80427933 -5.83680391 -26.7033386 # H4A
363 18 5 0.068 9.35981274 -4.19574404 -27.0433273 # H4B
364 18 3 0.132 7.22988605 -4.38582897 -27.0000782 # C5
365 18 6 0.034 6.45181799 -4.96605015 -26.4757175 # H5A
366 18 6 0.034 7.05813122 -3.33382607 -26.8001060 # H5B
367 18 1 -0.100 8.06616402 -5.49267483 -24.1765118 # C1
368 18 4 0.033 8.30088711 -6.52202988 -24.4660473 # H1A
369 18 4 0.033 7.01184988 -5.27698088 -24.3339920 # H1B
370 18 4 0.033 8.31634140 -5.33739185 -23.1273232 # H1C
371 18 1 -0.100 8.61047459 -3.11770606 -24.6090031 # C2
372 18 4 0.033 8.83186054 -3.00657797 -23.5487957 # H2A
373 18 4 0.033 7.55143595 -2.90745497 -24.7734165 # H2B
374 18 4 0.033 9.23025894 -2.44404197 -25.1998062 # H2C
375 18 1 -0.100 10.3667574 -4.84377718 -24.7396297 # C3
376 18 4 0.033 10.5737276 -5.87143517 -25.0404377 # H3A
377 18 4 0.033 10.5402279 -4.71597099 -23.6742783 # H3B
378 18 4 0.033 10.9776897 -4.14664602 -25.3139744 # H3C
379 19 8 -0.468 -6.83612585 -1.73812604 27.7374916 # O1
380 19 9 0.275 -7.33453083 -0.883138001 27.9581432 # H1
381 19 7 0.791 -5.22561502 -0.805850983 24.4041882 # N1
382 19 2 -0.131 -5.53424883 -0.856891990 25.8953075 # C4
383 19 5 0.068 -5.72505617 0.161833003 26.2320404 # H4A
384 19 5 0.068 -4.63968992 -1.22119296 26.3948612 # H4B
385 19 3 0.132 -6.70812893 -1.76092005 26.3252258 # C5
386 19 6 0.034 -7.64599180 -1.42261004 25.8530388 # H5A
387 19 6 0.034 -6.51614189 -2.77837205 26.0025291 # H5B
388 19 1 -0.100 -6.34672499 -0.118773997 23.6663265 # C1
389 19 4 0.033 -6.47023582 0.888568997 24.0768204 # H1A
390 19 4 0.033 -7.26233387 -0.695782006 23.7741375 # H1B
391 19 4 0.033 -6.07711792 -5.81160001E-02 22.6122246 # H1C
392 19 1 -0.100 -5.02122402 -2.20149899 23.8369255 # C2
393 19 4 0.033 -4.79387379 -2.10810709 22.7762699 # H2A
394 19 4 0.033 -5.94300222 -2.77582598 23.9521351 # H2B
395 19 4 0.033 -4.19934893 -2.68837595 24.3608284 # H2C
396 19 1 -0.100 -3.95295906 -9.43300035E-03 24.2037563 # C3
397 19 4 0.033 -4.10179710 0.985617995 24.6246185 # H3A
398 19 4 0.033 -3.76510310 5.27339987E-02 23.1349964 # H3B
399 19 4 0.033 -3.13173294 -0.519325972 24.7084312 # H3C
400 20 8 -0.468 7.13622284 3.97070193 12.7767458 # O1
401 20 9 0.275 7.61690807 4.21884680 13.6343384 # H1
402 20 7 0.791 9.22339153 5.85773420 10.1967001 # N1
403 20 2 -0.131 8.79932022 4.83429623 11.2426615 # C4
404 20 5 0.068 9.54653168 4.83805323 12.0359192 # H4A
405 20 5 0.068 8.81534863 3.85938096 10.7612171 # H4B
406 20 3 0.132 7.39988899 5.02354908 11.8638420 # C5
407 20 6 0.034 7.33682680 5.99741316 12.3782482 # H5A
408 20 6 0.034 6.65210295 5.00807810 11.0784903 # H5B
409 20 1 -0.100 9.42220020 7.20593500 10.8418598 # C1
410 20 4 0.033 10.1788492 7.10995483 11.6272078 # H1A
411 20 4 0.033 8.47860813 7.55617189 11.2540131 # H1B
412 20 4 0.033 9.76718712 7.90365124 10.0791845 # H1C
413 20 1 -0.100 8.19021130 5.97032118 9.08707905 # C2
414 20 4 0.033 8.54527760 6.70293188 8.36416245 # H2A
415 20 4 0.033 7.24493217 6.31862783 9.50889683 # H2B
416 20 4 0.033 8.06183910 4.99827909 8.61204433 # H2C
417 20 1 -0.100 10.5380964 5.41050911 9.59200954 # C3
418 20 4 0.033 11.2706709 5.31889200 10.3947210 # H3A
419 20 4 0.033 10.8489599 6.16742277 8.87657547 # H3B
420 20 4 0.033 10.3923979 4.45054913 9.09567356 # H3C
421 21 8 -0.468 -3.89941096 18.3273716 -7.31843805 # O1
422 21 9 0.275 -4.87096500 18.1552868 -7.55203819 # H1
423 21 7 0.791 -4.22760201 21.3461876 -5.00481892 # N1
424 21 2 -0.131 -4.29875422 19.9212132 -5.53931093 # C4
425 21 5 0.068 -5.33079910 19.5825081 -5.45122910 # H4A
426 21 5 0.068 -3.67934799 19.3053074 -4.89162493 # H4B
427 21 3 0.132 -3.81614900 19.7041759 -6.98847485 # C5
428 21 6 0.034 -4.42491102 20.3004570 -7.68908787 # H5A
429 21 6 0.034 -2.78515410 20.0287914 -7.07720995 # H5B
430 21 1 -0.100 -5.22098589 22.2206631 -5.72723484 # C1
431 21 4 0.033 -6.22219086 21.7993298 -5.59097910 # H1A
432 21 4 0.033 -4.96272516 22.2717896 -6.78250313 # H1B
433 21 4 0.033 -5.17784977 23.2194176 -5.29350281 # H1C
434 21 1 -0.100 -2.83002090 21.9234734 -5.16264200 # C2
435 21 4 0.033 -2.83113909 22.9339542 -4.75726795 # H2A
436 21 4 0.033 -2.57635593 21.9681282 -6.22398996 # H2B
437 21 4 0.033 -2.11748099 21.2986431 -4.62517023 # H2C
438 21 1 -0.100 -4.58049297 21.3252850 -3.53202009 # C3
439 21 4 0.033 -5.57814980 20.8979435 -3.42494202 # H3A
440 21 4 0.033 -4.56426287 22.3507881 -3.17218494 # H3B
441 21 4 0.033 -3.84601903 20.7203350 -2.99939990 # H3C
442 22 8 -0.468 1.83802605 -8.61329842 7.48223114 # O1
443 22 9 0.275 2.54169393 -9.30272388 7.72231913 # H1
444 22 7 0.791 1.82576895 -6.45442200 10.6307068 # N1
445 22 2 -0.131 2.26656699 -7.09743023 9.32168579 # C4
446 22 5 0.068 3.24292994 -7.55296707 9.48539066 # H4A
447 22 5 0.068 2.37931395 -6.29709911 8.59418297 # H4B
448 22 3 0.132 1.31298697 -8.14725113 8.71451855 # C5
449 22 6 0.034 1.17595994 -8.99047184 9.41251755 # H5A
450 22 6 0.034 0.343434989 -7.69420910 8.53867245 # H5B
451 22 1 -0.100 1.84530401 -7.47417498 11.7411680 # C1
452 22 4 0.033 2.85812712 -7.88124514 11.8247433 # H1A
453 22 4 0.033 1.12771106 -8.26251793 11.5255852 # H1B
454 22 4 0.033 1.56939805 -6.97531605 12.6698837 # H1C
455 22 1 -0.100 0.432146013 -5.85911798 10.5089455 # C2
456 22 4 0.033 0.171138003 -5.40510511 11.4634857 # H2A
457 22 4 0.033 -0.281931013 -6.65562201 10.2887764 # H2B
458 22 4 0.033 0.426167995 -5.11063480 9.71727657 # H2C
459 22 1 -0.100 2.79891801 -5.34542799 10.9730806 # C3
460 22 4 0.033 3.79795408 -5.77677679 11.0456772 # H3A
461 22 4 0.033 2.49648690 -4.92115116 11.9269810 # H3B
462 22 4 0.033 2.76508999 -4.58857822 10.1887760 # H3C
463 23 8 -0.468 2.41287398 4.45077181 7.63295794 # O1
464 23 9 0.275 3.01340604 5.12114286 7.16598701 # H1
465 23 7 0.791 0.844802976 2.66770697 4.64370489 # N1
466 23 2 -0.131 1.86289096 3.13134408 5.67803383 # C4
467 23 5 0.068 2.71752095 3.54528904 5.14337921 # H4A
468 23 5 0.068 2.19270301 2.24840999 6.22039413 # H4B
469 23 3 0.132 1.36953902 4.15881205 6.71774721 # C5
470 23 6 0.034 1.03477001 5.08233976 6.21572399 # H5A
471 23 6 0.034 0.526450992 3.74556804 7.26054716 # H5B
472 23 1 -0.100 0.493324012 3.80410695 3.71717501 # C1
473 23 4 0.033 1.40991604 4.15877485 3.23492002 # H1A
474 23 4 0.033 1.92820001E-02 4.60304594 4.28275824 # H1B
475 23 4 0.033 -0.200172007 3.43072510 2.96408296 # H1C
476 23 1 -0.100 -0.417091012 2.14402699 5.31062412 # C2
477 23 4 0.033 -1.10363305 1.81719697 4.53136587 # H2A
478 23 4 0.033 -0.885195017 2.95033598 5.87943411 # H2B
479 23 4 0.033 -0.161537006 1.31209898 5.96605396 # H2C
480 23 1 -0.100 1.46236396 1.55034900 3.82869697 # C3
481 23 4 0.033 2.37367892 1.92864799 3.36415505 # H3A
482 23 4 0.033 0.741842985 1.25533497 3.07026505 # H3B
483 23 4 0.033 1.68889105 0.712568998 4.48893118 # H3C
484 24 8 -0.468 -22.3097057 -1.65733898 7.73551416 # O1
485 24 9 0.275 -23.0713463 -2.32663989 7.72927999 # H1
486 24 7 0.791 -19.5009995 -3.76028490 9.23970318 # N1
487 24 2 -0.131 -20.5403748 -3.22462511 8.26293945 # C4
488 24 5 0.068 -21.1710491 -4.05853081 7.95561600 # H4A
489 24 5 0.068 -20.0023327 -2.86194205 7.39031410 # H4B
490 24 3 0.132 -21.4337711 -2.07374191 8.77028275 # C5
491 24 6 0.034 -22.0131798 -2.39749694 9.65145683 # H5A
492 24 6 0.034 -20.8101788 -1.23704004 9.06568718 # H5B
493 24 1 -0.100 -20.1817417 -4.46558905 10.3853626 # C1
494 24 4 0.033 -20.7963085 -5.27659082 9.98152542 # H1A
495 24 4 0.033 -20.7921486 -3.75640702 10.9397678 # H1B
496 24 4 0.033 -19.4137115 -4.87489891 11.0411777 # H1C
497 24 1 -0.100 -18.6241627 -2.64104390 9.77808571 # C2
498 24 4 0.033 -17.8953552 -3.07707906 10.4593468 # H2A
499 24 4 0.033 -19.2442322 -1.93130195 10.3299742 # H2B
500 24 4 0.033 -18.1207638 -2.14491391 8.94896221 # H2C
501 24 1 -0.100 -18.6233997 -4.75575304 8.50965595 # C3
502 24 4 0.033 -19.2599411 -5.54840708 8.11478996 # H3A
503 24 4 0.033 -17.9121304 -5.15900421 9.22581768 # H3B
504 24 4 0.033 -18.1033287 -4.24351501 7.69957018 # H3C
505 25 8 -0.468 5.12995291 17.0614777 20.6460304 # O1
506 25 9 0.275 5.00480604 16.4020252 19.8860569 # H1
507 25 7 0.791 7.70891905 19.4365921 19.1355476 # N1
508 25 2 -0.131 6.39699316 18.7099686 19.4041824 # C4
509 25 5 0.068 6.05282116 18.2827587 18.4625702 # H4A
510 25 5 0.068 5.67641211 19.4586868 19.7246304 # H4B
511 25 3 0.132 6.42942905 17.6048470 20.4801674 # C5
512 25 6 0.034 7.13969994 16.8108826 20.1935749 # H5A
513 25 6 0.034 6.75983715 18.0288219 21.4221210 # H5B
514 25 1 -0.100 8.69872093 18.4981518 18.4928780 # C1
515 25 4 0.033 8.26474857 18.1142101 17.5640316 # H1A
516 25 4 0.033 8.92883110 17.6852112 19.1777706 # H1B
517 25 4 0.033 9.60813808 19.0568104 18.2729759 # H1C