LAMMPS data file via write_data, version 29 Sep 2021, timestep = 5000208

11000 atoms
10 atom types
10000 bonds
8 bond types
18500 angles
13 angle types
24000 dihedrals
10 dihedral types

-25.042153157932056 25.042153157932056 xlo xhi
-25.042153157932056 25.042153157932056 ylo yhi
-25.042153157932056 25.042153157932056 zlo zhi

Masses

1 12.01
2 12.01
3 12.01
4 1.008
5 1.008
6 1.008
7 14.01
8 16
9 1.008
10 35.45

Pair Coeffs # lj/cut/coul/long

1 0.066 3.5
2 0.066 3.5
3 0.066 3.5
4 0.03 2.5
5 0.03 2.6
6 0.03 2.2
7 0.17 3.25
8 0.17 3.07
9 0 0
10 0.148 3.77

Bond Coeffs # harmonic

1 340 1.099
2 490 1.498
3 490 1.516
4 340 1.0805
5 317 1.521
6 340 1.085
7 450 1.395
8 553 0.949

Angle Coeffs # harmonic

1 35 110.01
2 35 108.9
3 51.8 110.2
4 35 106.4
5 70 116.6
6 35 108.3
7 80 109.6
8 35 109.3
9 35 111.6
10 35 110.9
11 35 108.73
12 35 108.6
13 35 107.4

Dihedral Coeffs # opls

1 0.1 0.55 0.65 0
2 0 0 0.825 0
3 0 0 0.94 0
4 0 1 0.7 0
5 -6 -5 3.2 0
6 -0.5 -2.5 0.25 0
7 -6 -7 0.75 0
8 6 -3 2 0
9 -0.356 -0.174 0.35 0
10 -3 1 -2 0

Atoms # full

8236 393 2 -0.131 -22.608369720838294 -18.470900817309282 -22.249782861033296 1 1 0
4896 234 7 0.791 -21.589521603342774 -18.997262000284586 -15.550868290638991 0 0 1
4897 234 2 -0.131 -21.414516973643295 -20.184325000929665 -14.525358189234757 0 0 1
4903 234 1 -0.1 -20.511523872909542 -19.064891135306567 -16.592384916187054 0 0 1
4904 234 4 0.033 -19.50090810302105 -19.049124988783092 -16.160852501712 0 0 1
8239 393 3 0.132 -21.25171659011196 -19.119395457821376 -21.776521182771532 1 1 0
8240 393 6 0.034 -20.877309250378435 -18.3460086813257 -21.114004098322706 1 1 0
10641 641 10 -0.8 -21.771511122512845 -21.576121042302344 -18.920932017239465 1 0 0
8233 393 8 -0.468 -20.40081429015258 -19.379662144859644 -22.85452055610132 1 1 0
8241 393 6 0.034 -21.3011846850389 -19.904119741829426 -21.02885982467381 1 1 0
8234 393 9 0.275 -19.532969809531394 -18.99595007779533 -22.83965367078619 1 1 0
4911 234 1 -0.1 -22.950895764125825 -19.1430879126547 -16.212507073162122 0 0 1
4909 234 4 0.033 -20.394052648677835 -17.635676120127787 -14.792115941950158 0 0 1
4908 234 4 0.033 -21.723308350516717 -17.006957701119934 -15.809968191529688 0 0 1
4910 234 4 0.033 -22.054260706438296 -17.406122078983348 -14.089933151839416 0 0 1
4907 234 1 -0.1 -21.47547966568982 -17.685236461497297 -14.981516532164667 0 0 1
4914 234 4 0.033 -23.84115873339177 -18.941405623406926 -15.600486482035699 0 0 1
4898 234 5 0.068 -20.37981118352974 -20.30265712590804 -14.237480552550457 0 0 1
4900 234 3 0.132 -22.21319427492348 -20.301608271408618 -13.4034761459769 0 0 1
4905 234 4 0.033 -20.68026714203646 -18.231114715589705 -17.288198028563468 0 0 1
4906 234 4 0.033 -20.678490533447746 -20.041593430618214 -17.06776690796257 0 0 1
4899 234 5 0.068 -21.508288211067278 -20.981734477642096 -15.248432965840987 0 0 1
4912 234 4 0.033 -23.157668457181718 -20.079751652290184 -16.748901648555204 0 0 1
4902 234 6 0.034 -23.269619560900207 -20.173129172022485 -13.614889365618891 0 0 1
7818 373 5 0.068 -14.288695823027703 -8.437623186021693 -20.90717166765785 1 1 0
4913 234 4 0.033 -23.203747652631716 -18.467579973094338 -17.041704306437452 0 0 1
6937 331 3 0.132 -17.406023366770725 -20.104912788403414 -18.68387256233076 1 1 0
6938 331 6 0.034 -18.13767377508755 -19.635379837809573 -19.333074544561466 1 1 0
8244 393 4 0.033 -22.422198637320562 -18.089661741462823 -19.578295822926595 1 1 0
6944 331 1 -0.1 -18.091038065082984 -21.652648359561333 -21.224692894376506 1 1 0
6933 331 7 0.791 -17.405435969092313 -22.25915674157769 -20.093815054402675 1 1 0
6935 331 5 0.068 -15.872412174825682 -20.88775723617556 -19.893654736897673 1 1 0
8247 393 4 0.033 -23.433056740309624 -19.87399434867268 -19.9459053395019 1 1 0
6947 331 4 0.033 -18.4248207876135 -22.411080258913174 -21.946623203749027 1 1 0
8238 393 5 0.068 -23.000176644414847 -19.10592401949173 -23.031271769336314 1 1 0
6945 331 4 0.033 -17.463620187281123 -20.882142276529024 -21.694246234224533 1 1 0
6939 331 6 0.034 -18.03255820462919 -20.5232909109465 -17.903071330414274 1 1 0
6948 331 1 -0.1 -18.22487176411746 -23.231071065752896 -19.31878190204371 1 1 0
6946 331 4 0.033 -18.980767389718647 -21.075058638695957 -20.937316645781124 1 1 0
6951 331 4 0.033 -19.05486997655229 -22.732561579544182 -18.798777598167046 1 1 0
8235 393 7 0.791 -23.694322642073633 -18.334723298992426 -21.159971622171167 1 1 0
8237 393 5 0.068 -22.406093740450284 -17.475105719035348 -22.61716362451787 1 1 0
8242 393 1 -0.1 -23.21457587174656 -17.486509813576316 -20.04322524143034 1 1 0
8245 393 4 0.033 -23.977617305425316 -17.268056209742966 -19.28305492050578 1 1 0
10916 916 10 -0.8 -16.884122975817558 -23.098179108098293 -15.636342604735896 -1 1 0
8243 393 4 0.033 -22.71795717410878 -16.58625843617203 -20.43146563233587 1 1 0
5346 255 4 0.033 -17.346275990184296 -17.298542997708154 -21.54496551611486 1 0 0
8926 426 8 -0.468 -21.183496387848447 -22.80722234030279 -24.51048183275779 1 1 1
8250 393 1 -0.1 -24.828630818386884 -17.607510408259575 -21.78418751136756 1 1 0
5995 286 1 -0.1 -22.667533166283622 -24.153951480883133 -14.996200059628373 0 1 0
8246 393 1 -0.1 -24.19029694476964 -19.693022273490815 -20.721565862513387 1 1 0
5998 286 4 0.033 -23.062588304764912 -23.43376242018276 -14.266082049612004 0 1 0
5993 286 6 0.034 -20.214965282326226 -24.150234185294764 -16.888532264702846 0 1 0
8248 393 4 0.033 -24.43414755027275 -20.38142242245422 -21.542818188833643 1 1 0
8928 426 7 0.791 -24.94723066293016 -22.80140068949073 -24.741765574430254 1 1 1
5997 286 4 0.033 -22.479331858207644 -23.40559264980682 -15.778729647350088 0 1 0
8737 417 8 -0.468 -17.232880326110262 -20.188144025948603 -14.97351217374786 -1 0 1
6950 331 4 0.033 -18.753065805128312 -24.110069002839502 -19.7139864478406 1 1 0
6931 331 8 -0.468 -16.59255849206437 -19.24453913628353 -18.05232019683065 1 1 0
6932 331 9 0.275 -16.73777776069199 -19.145127203818934 -17.119776037006158 1 1 0
6934 331 2 -0.131 -16.690047548769677 -21.22807437979672 -19.27466476652499 1 1 0
5996 286 4 0.033 -23.568537775565744 -24.64915631799465 -15.384499051602855 0 1 0
6949 331 4 0.033 -17.57445925599997 -23.630285180850247 -18.527956432125976 1 1 0
1166 56 4 0.033 -24.910242639248978 -13.317576270682247 -24.599771230605057 0 1 0
6000 286 4 0.033 -20.915449932593063 -24.324921625245402 -12.827704148094377 0 1 0
7816 373 2 -0.131 -13.97207877847666 -8.55030965327461 -21.934083290843027 1 1 0
8929 426 2 -0.131 -23.46589664412509 -22.597547289731057 -24.35394413121327 1 1 1
8931 426 5 0.068 -23.359172933477524 -21.532700630198722 -24.204934825680464 1 1 1
8147 388 4 0.033 -12.415344823027725 -19.99051706668027 -24.68473743984565 0 1 1
5999 286 1 -0.1 -20.448105378220543 -24.46774394323594 -13.812084205213443 0 1 0
7938 378 4 0.033 -22.498603949769173 -25.0045199307304 -20.596805595948204 0 0 0
768 37 4 0.033 -4.1606212854401505 -13.677861038837284 -24.800690073603707 1 0 1
956 46 4 0.033 -9.492208345467043 -11.645041773164953 -12.783278812784024 1 1 0
422 21 9 0.275 -18.750665280118735 -16.319562838533187 -17.238977525018434 0 1 0
8930 426 5 0.068 -23.421945974705597 -22.920619710299835 -23.323805981438095 1 1 1
10736 736 10 -0.8 -21.61894547636431 -8.608997763542948 -16.13574629460226 1 1 0
6001 286 4 0.033 -20.205045063721784 -23.496045295578558 -14.264341517522336 0 1 0
8224 392 4 0.033 -24.683211843394663 -11.219207944289767 -14.29671981213488 1 0 1
6941 331 4 0.033 -15.740762496359496 -22.6537590073237 -21.282172473649275 1 1 0
8738 417 9 0.275 -17.1559668588772 -21.128042378173603 -15.07974530080329 -1 0 1
6940 331 1 -0.1 -16.473453438624958 -23.233811187381317 -20.703798394263863 1 1 0
6936 331 5 0.068 -16.392954275648883 -21.754088478648963 -18.378820814507204 1 1 0
3399 162 1 -0.1 -13.864355673193696 -24.70053068045314 -16.331705265912156 1 0 1
8739 417 7 0.791 -14.9903511708418 -17.36096699887877 -13.799877554202894 -1 0 1
8142 388 4 0.033 -14.002577917255282 -22.27758407078368 -24.999714921333286 0 1 1
8744 417 6 0.034 -15.728782251041565 -19.20232437540036 -15.918771405338008 -1 0 1
3383 162 9 0.275 -12.520511870488006 -19.710636427045905 -18.03194452052428 1 0 1
3389 162 6 0.034 -13.361562288659762 -20.50304772133658 -15.554248470706842 1 0 1
8743 417 3 0.132 -15.998277870198166 -19.525225803071983 -14.91859956523704 -1 0 1
3382 162 8 -0.468 -13.23390766774919 -20.164900276788746 -17.601455383327355 1 0 1
3388 162 3 0.132 -12.933723593748331 -20.942597224286885 -16.4492273693555 1 0 1
8745 417 6 0.034 -15.204246959099308 -20.2323646270087 -14.702482588382653 -1 0 1
3394 162 4 0.033 -12.355982525040158 -22.562406583626874 -14.11479707273687 1 0 1
3390 162 6 0.034 -11.866321245671275 -21.063826386162685 -16.296936540805554 1 0 1
3391 162 1 -0.1 -13.232058585727994 -23.095775332752964 -14.509539751439748 1 0 1
2320 111 1 -0.1 -10.688011419057895 -23.195332533478737 -22.250758113344396 0 0 1
2316 111 5 0.068 -10.759827859518367 -20.799819738002213 -23.08474790482722 0 0 1
3392 162 4 0.033 -13.399596692506192 -23.908301724147748 -13.788745038392308 1 0 1
3396 162 4 0.033 -11.31270326634206 -24.491744463849894 -16.944514623844768 1 0 1
3387 162 5 0.068 -13.072628443355596 -22.469688140916276 -17.966443969080814 1 0 1
3398 162 4 0.033 -10.980478648128306 -23.347314481067034 -15.499529361022988 1 0 1
3395 162 1 -0.1 -11.63068378189853 -24.099008151139007 -15.968574151206317 1 0 1
3385 162 2 -0.131 -13.342850860219817 -22.36140603261074 -16.92589269691504 1 0 1
3386 162 5 0.068 -14.418632612258625 -22.285431084173258 -16.992326632841717 1 0 1
3384 162 7 0.791 -13.06017199388255 -23.5558068532972 -15.934158775884919 1 0 1
6546 312 4 0.033 -8.659805185582204 -16.576697226400224 -19.221627748497447 1 0 1
10757 757 10 -0.8 -10.166664306062549 -19.711275257870565 -14.890173289182721 -1 1 -1
10741 741 10 -0.8 -15.476415579714695 -19.161948474846657 -22.274723968025565 -1 0 0
6547 312 4 0.033 -8.693221812707549 -18.00136883507648 -18.096760158703585 1 0 1
2325 111 4 0.033 -10.56156899951375 -22.574655274535967 -19.838443900448336 0 0 1
2324 111 1 -0.1 -10.31894158005783 -21.716968538036085 -20.48134255585276 0 0 1
2326 111 4 0.033 -11.239707453807329 -21.12363320690675 -20.570542790133043 0 0 1
10418 497 9 0.275 -13.724356359826835 -18.978234873409246 -20.543059448524275 0 0 1
8755 417 4 0.033 -13.64963897665696 -18.06290361408265 -15.16019780969793 -1 0 1
10417 497 8 -0.468 -12.833131894598324 -18.661581716938258 -20.465215958354925 0 0 1
2322 111 4 0.033 -11.738518637788408 -22.87248728641668 -22.24642169598743 0 0 1
3393 162 4 0.033 -14.232334808642248 -22.69014256101809 -14.30284484267536 1 0 1
2313 111 7 0.791 -9.770686887857629 -22.08385841255638 -21.84354379319225 0 0 1
3397 162 4 0.033 -11.361185232796172 -24.759469563904688 -15.132527275207451 1 0 1
6943 331 4 0.033 -16.048652611683984 -23.996811847403396 -20.036574668869758 1 1 0
2323 111 4 0.033 -10.667986013908155 -24.120778810780244 -21.658338252607503 0 0 1
2321 111 4 0.033 -10.469690395333695 -23.50690986146201 -23.281810348193005 0 0 1
8754 417 1 -0.1 -13.616920813274845 -17.92751528238297 -14.070054356328725 -1 0 1
6545 312 1 -0.1 -8.385431596423881 -16.95437534217146 -18.226694945969008 1 0 1
2315 111 5 0.068 -9.386958669566209 -20.030552316671077 -22.30603760120728 0 0 1
6543 312 4 0.033 -9.203100795279068 -17.35624390355105 -15.607365472361318 1 0 1
8756 417 4 0.033 -13.340886202715973 -18.86773895290439 -13.572462514894365 -1 0 1
2314 111 2 -0.131 -9.702418197543548 -20.889094675567875 -22.881261294951 0 0 1
6548 312 4 0.033 -7.318132092647957 -16.697141049767687 -18.17654244539144 1 0 1
8757 417 4 0.033 -12.944685476919897 -17.100539808015263 -13.801680629467631 -1 0 1
2327 111 4 0.033 -9.560015941694918 -21.075408414785297 -20.012039107955026 0 0 1
3402 162 4 0.033 -14.9370111715942 -24.466813384166976 -16.38268938228265 1 0 1
8740 417 2 -0.131 -16.116275070445365 -18.33115399172549 -13.943170192047793 -1 0 1
1463 70 1 -0.1 -2.0983242076653497 -15.75606879800361 -13.030630853666235 0 0 0
10945 945 10 -0.8 -12.782470742801113 -24.599189248434644 -20.191646756100603 2 0 1
2317 111 3 0.132 -9.039913790255156 -20.997393653827423 -24.28738835406142 0 0 1
2319 111 6 0.034 -9.43295206254171 -21.864459255475072 -24.8079218098893 0 0 1
10421 497 5 0.068 -10.659281102604766 -17.547429194266066 -21.508878469686177 0 0 1
6552 312 4 0.033 -10.957624589109443 -17.378839602203353 -17.42391875985976 1 0 1
10425 497 6 0.034 -13.660509867170092 -17.15190610505163 -21.6415233187009 0 0 1
10423 497 3 0.132 -12.802002873742914 -17.331670291659666 -21.002862754647175 0 0 1
10422 497 5 0.068 -11.940922843187652 -18.143335059712374 -22.528555645501484 0 0 1
10420 497 2 -0.131 -11.588112028538022 -17.275884216335605 -21.989532763012942 0 0 1
6942 331 4 0.033 -17.01535545667901 -23.805667704809675 -21.47004604738914 1 1 0
10431 497 4 0.033 -10.773343907154883 -17.10431096881233 -24.876872728282635 0 0 1
978 47 4 0.033 -9.935637502541821 -21.25898570169348 -12.561864745063307 0 1 -1
8741 417 5 0.068 -17.035553152297854 -17.88453305904683 -14.293811952952987 -1 0 1
8144 388 4 0.033 -15.404681755227346 -21.306788789128216 -24.94322415024654 0 1 1
10117 482 4 0.033 -24.236570827935996 -8.685772214015259 -22.479215246128618 0 0 0
8742 417 5 0.068 -16.36114878811126 -18.580378292265294 -12.92071427836088 -1 0 1
4135 197 4 0.033 -3.4836120214034416 -19.150916385156517 -23.93982248951178 1 0 1
4134 197 1 -0.1 -4.176744659985587 -18.299268729929132 -23.985393375585293 1 0 1
2318 111 6 0.034 -7.98507960839493 -21.215931048486297 -24.157761751731922 0 0 1
1766 85 9 0.275 -0.5550800543558019 -22.999732194363634 -18.287315816145487 0 1 2
2331 111 4 0.033 -7.701320132759037 -21.708900501734256 -21.608315141034794 0 0 1
4137 197 4 0.033 -3.632310912250123 -17.345540088105583 -23.942886674178943 1 0 1
4122 197 5 0.068 -6.418740886813833 -17.501909756512212 -24.31326544322908 1 0 1
2328 111 1 -0.1 -8.394028134117814 -22.55799137932736 -21.524568597782142 0 0 1
2330 111 4 0.033 -8.280029295957092 -23.06856957632492 -20.558066041611536 0 0 1
2329 111 4 0.033 -8.052897031892204 -23.320132536941966 -22.239119836434508 0 0 1
3872 185 6 0.034 -1.5996936962299628 -19.73047246193891 -24.38829325816393 0 1 -1
3871 185 3 0.132 -0.9391427008381434 -20.58995211409262 -24.435239675086972 0 1 -1
10525 525 10 -0.8 -6.3294736567390295 -24.917856552095056 -15.554308237318835 -1 0 1
1784 85 4 0.033 -2.5689460341449966 -23.56745439581793 -23.097572522478803 0 1 2
1939 93 3 0.132 -0.1610906800329026 -20.56021391896452 -12.768171528848146 0 0 1
10677 677 10 -0.8 -7.857078396618167 -18.451293940411908 -21.014271147468335 2 0 0
9116 435 9 0.275 -6.975565974289065 -19.736060186363655 -19.758753177903593 2 1 1
9115 435 8 -0.468 -6.635669366698519 -20.43172868826674 -19.21000398492083 2 1 1
9119 435 5 0.068 -7.31692378435978 -20.23663861433914 -16.52932200323827 2 1 1
9120 435 5 0.068 -6.515136870023557 -21.618878897968763 -16.992826452434244 2 1 1
3238 155 2 -0.131 -0.4638966772951214 -18.67088745772923 -17.322416105544832 0 0 2
8927 426 9 0.275 -20.7029823261919 -23.481054083301952 -24.04608217290501 1 1 1
9122 435 6 0.034 -5.989946310319716 -18.73750728055746 -18.074866715857468 2 1 1
9123 435 6 0.034 -4.9754770277160425 -20.087138435930548 -18.210164036958382 2 1 1
9121 435 3 0.132 -6.021895152641676 -19.821713834061633 -18.101556110567063 2 1 1
1777 85 4 0.033 -4.494933587438325 -21.21738178138001 -21.040753345400667 0 1 2
1779 85 4 0.033 -4.613888033198453 -23.121359300417108 -19.380995654854573 0 1 2
1778 85 1 -0.1 -4.540021981924852 -23.80712403842231 -20.236614519236525 0 1 2
9129 435 4 0.033 -4.893003417037988 -18.30895878729266 -15.885937784823945 2 1 1
9133 435 4 0.033 -3.4825390482454637 -20.00610638196961 -16.807520784591514 2 1 1
1765 85 8 -0.468 -0.44723725431434147 -22.63169853437603 -19.15537759915226 0 1 2
9125 435 4 0.033 -6.765684592123094 -21.291078564790944 -14.219137540111168 2 1 1
9127 435 4 0.033 -5.563303703646657 -22.41771239449625 -14.938433454013001 2 1 1
9118 435 2 -0.131 -6.334763866852583 -20.564887270764274 -16.837715822366537 2 1 1
9126 435 4 0.033 -5.0232372798529 -21.251267744752234 -13.830904199518919 2 1 1
9134 435 4 0.033 -3.9739562245779183 -21.727037383359427 -16.492553280258697 2 1 1
9135 435 4 0.033 -3.244864629390161 -20.583353294122336 -15.254047557728303 2 1 1
9132 435 1 -0.1 -3.9434650940265 -20.703333375879218 -16.09391385198255 2 1 1
9117 435 7 0.791 -5.3492353959615 -20.38446343391515 -15.679486532574147 2 1 1
9128 435 1 -0.1 -5.377908697611563 -18.974166551642337 -15.157804181748578 2 1 1
9130 435 4 0.033 -4.799475087407526 -18.93597748106386 -14.2241183168204 2 1 1
9131 435 4 0.033 -6.400798544786753 -18.670914254591754 -14.894085367067548 2 1 1
9124 435 1 -0.1 -5.754699979628011 -21.37705395985926 -14.64143081144759 2 1 1
10659 659 10 -0.8 -2.802341154887799 -19.064714230074355 -20.720610797490448 -1 1 0
1768 85 2 -0.131 -2.3485127137813855 -22.55833971517118 -20.519309840182906 0 1 2
1769 85 5 0.068 -2.6649140122100476 -21.892198224228206 -19.729602446995784 0 1 2
1767 85 7 0.791 -3.645462543671453 -23.119892063971573 -21.270712569674146 0 1 2
1774 85 1 -0.1 -4.351716215441165 -21.90417449863786 -21.88669532695654 0 1 2
1770 85 5 0.068 -1.8167845016103321 -22.053244040101433 -21.312805593512888 0 1 2
4133 197 4 0.033 -5.804573692032903 -19.907637802950855 -24.435950418213736 1 0 1
3240 155 5 0.068 -1.239229169688258 -18.53001219668578 -18.06167631130881 0 0 2
1938 93 5 0.068 -2.1868718107473057 -21.116908890059804 -13.024447111320871 0 0 1
4136 197 4 0.033 -4.92993592722744 -18.552660770306893 -23.22624358401777 1 0 1
1775 85 4 0.033 -5.229701453193474 -22.275039268512142 -22.43388291589421 0 1 2
1776 85 4 0.033 -3.7397914849079505 -21.299704402082316 -22.570783977160435 0 1 2
1782 85 1 -0.1 -3.172287168641379 -24.07228532650678 -22.330149275824336 0 1 2
3239 155 5 0.068 -0.5449761005055791 -19.59194423817601 -16.763334368620285 0 0 2
3235 155 8 -0.468 -2.1230564849146774 -17.50165690224772 -16.087377206545284 0 0 2
1773 85 6 0.034 -1.0215900819078243 -24.29814839756425 -20.29838445919207 0 1 2
1772 85 6 0.034 -2.0443116121480536 -24.09300110599359 -19.01596892934359 0 1 2
3241 155 3 0.132 -0.6799499533163171 -17.67717692547826 -16.201778887600298 0 0 2
3236 155 9 0.275 -2.4683609834281093 -17.199574764866366 -15.25664179646618 0 0 2
1933 93 8 -0.468 -0.4604958061802158 -19.70428142852368 -13.826291975553305 0 0 1
1771 85 3 0.132 -1.4518967998525127 -23.498927011301838 -19.703978814183493 0 1 2
1587 76 4 0.033 -0.48614453790160184 -11.07331030825674 -14.261253367049294 0 1 1
1947 93 4 0.033 -1.7405982128889903 -23.51052495631921 -13.383922992089056 0 0 1
1780 85 4 0.033 -4.1181744035678065 -24.726762923657862 -19.807519885674655 0 1 2
2061 99 7 0.791 -3.239516130846148 -14.91984381483997 -19.28894043133368 1 0 1
2311 111 8 -0.468 -9.339043736696368 -19.831588270631734 -24.72758154237654 0 0 1
1420 68 4 0.033 -13.922209411491622 -24.835846823526566 -23.663928906959597 0 1 1
3243 155 6 0.034 -0.22544496833663885 -16.74411997306551 -16.518111857942934 0 0 2
7019 335 5 0.068 -8.009860498361089 -24.921584147665513 -13.303929971130815 0 2 0
3869 185 5 0.068 -0.28251344184126026 -20.77583300508264 -22.324398804349432 0 1 -1
3877 185 4 0.033 -0.07670790883744516 -17.671834395873542 -23.538558937634658 0 1 -1
1781 85 4 0.033 -5.531295755749156 -24.11438625689813 -20.59824895394408 0 1 2
1196 57 4 0.033 -8.807425624026916 -8.74942454798791 -15.384653122213138 1 1 1
1591 76 4 0.033 -0.09366457358774838 -9.16787459229769 -15.742726245729536 0 1 1
3865 185 8 -0.468 -1.5666867823629573 -21.92508884132225 -24.36791236419915 0 1 -1
5351 255 4 0.033 -17.948533675261356 -15.775299820844499 -19.224645086435952 1 0 0
5345 255 4 0.033 -18.789782051684526 -16.317509158252115 -21.16071336733509 1 0 0
1785 85 4 0.033 -4.077870571066118 -24.495584935974364 -22.786821287471223 0 1 2
5344 255 1 -0.1 -17.852853753194402 -16.341872731374238 -21.734633938653694 1 0 0
5347 255 4 0.033 -17.99586847535744 -16.347818900389196 -22.82427817860384 1 0 0
8253 393 4 0.033 -24.604729700952202 -16.555595738552718 -22.01036678665003 1 1 0
5917 282 4 0.033 -18.207705513380454 -8.705818832449811 -13.378100062075445 -1 0 0
4377 209 6 0.034 -25.041986778827177 -14.186610778992893 -17.44706098996588 3 0 2
8223 392 4 0.033 -24.032006649961044 -9.673071160349345 -15.062988469931001 1 0 1
4370 209 9 0.275 -24.621798097682728 -13.183372691187294 -15.60451288691185 3 0 2
4894 234 8 -0.468 -22.125256868289526 -21.63290182016579 -12.804016252859682 0 0 1
4373 209 5 0.068 -24.696263848225556 -11.332819525398623 -18.51782198356191 3 0 2
4901 234 6 0.034 -21.882284400967677 -19.465859361200835 -12.795808999878147 0 0 1
10926 926 10 -0.8 -20.51852178046722 -14.93494300289117 -19.66787151029146 2 0 1
5337 255 7 0.791 -17.06048826219717 -15.092523583754538 -21.25783785741561 1 0 0
5026 240 3 0.132 -20.783893237358818 -9.196098361649693 -19.558594202519124 1 0 1
10116 482 4 0.033 -23.981385570609575 -9.631650993575994 -24.03303842163156 0 0 0
421 21 8 -0.468 -18.682391611122554 -16.01120724187563 -16.344066531661262 0 1 0
5030 240 4 0.033 -19.144137113957605 -9.54847084704923 -22.93021888167195 1 0 1
5025 240 5 0.068 -21.749283878515293 -8.840795189049569 -21.63972990505699 1 0 1
5340 255 5 0.068 -18.741196577926182 -13.763261817645235 -21.169060705677776 1 0 0
432 21 4 0.033 -21.753542623481977 -11.284614323399474 -15.051140410661322 0 1 0
5024 240 5 0.068 -20.74347562032704 -10.03282007526603 -21.388593254193324 1 0 1
4385 209 4 0.033 -22.67643843186671 -11.928680802587314 -20.559308777950523 3 0 2
1170 56 4 0.033 -22.73199423644683 -13.988079260713521 -24.4733121390756 0 1 0
10884 884 10 -0.8 -21.60164277731922 -11.404206707620997 -23.912923427688536 0 0 1
4379 209 4 0.033 -23.1766961615369 -14.390805228431544 -19.31888511635874 3 0 2
4380 209 4 0.033 -23.889279554039472 -14.552859619900724 -21.012680045340616 3 0 2
4372 209 2 -0.131 -24.466560686673162 -12.387404745528361 -18.568599770053197 3 0 2
4382 209 1 -0.1 -23.710356129026806 -11.819781295911556 -20.915634796501603 3 0 2
4374 209 5 0.068 -23.400072034787165 -12.300013680645849 -18.41874363599338 3 0 2
4371 209 7 0.791 -24.44664913802689 -12.778458575500617 -20.03432500635495 3 0 2
5343 255 6 0.034 -18.795963013923437 -14.128477520257874 -23.626754207759255 1 0 0
4378 209 1 -0.1 -24.044647819095406 -14.230268297552701 -19.97363781945116 3 0 2
4381 209 4 0.033 -24.861272882058802 -14.891935040026322 -19.652493157161743 3 0 2
4384 209 4 0.033 -23.732164239101156 -12.031386029871433 -21.99385601744597 3 0 2
5341 255 3 0.132 -18.09821828562643 -13.437949211369606 -23.164628856247763 1 0 0
5336 255 9 0.275 -19.332666168685922 -11.996133647475107 -23.45408349155033 1 0 0
430 21 1 -0.1 -21.53827011388786 -12.31030758635495 -15.381933762010032 0 1 0
431 21 4 0.033 -22.41520141514987 -12.709441447772122 -15.91060834370215 0 1 0
436 21 4 0.033 -19.98072161280983 -10.739454086408912 -17.165132417003868 0 1 0
423 21 7 0.791 -20.172273155247456 -12.535388379952456 -15.903726237527769 0 1 0
424 21 2 -0.131 -19.98764178963132 -14.044417198656372 -15.875908538750128 0 1 0
425 21 5 0.068 -20.825635558344267 -14.626274149385162 -16.23185910421128 0 1 0
434 21 1 -0.1 -19.961118881073816 -11.835782176311486 -17.239252153215983 0 1 0
437 21 4 0.033 -20.857851046687546 -12.05371070069737 -17.836070143786458 0 1 0
5335 255 8 -0.468 -18.44406829664069 -12.104948441624225 -23.13918142954844 1 0 0
5342 255 6 0.034 -17.267583500943445 -13.473258973021442 -23.861791554296847 1 0 0
5338 255 2 -0.131 -17.77462630752617 -13.776824932062095 -21.651813265627744 1 0 0
10930 930 10 -0.8 -23.515866599011815 -15.178179537461117 -15.019766268829253 2 0 0
426 21 5 0.068 -19.887423511477753 -14.500115327732173 -14.901338250183692 0 1 0
428 21 6 0.034 -18.967241577714365 -14.485514775844797 -17.724589454301448 0 1 0
5020 240 8 -0.468 -21.7811800894327 -10.01512480349523 -19.174611439164742 1 0 1
5023 240 2 -0.131 -20.848952982547086 -9.007029614386926 -21.065916106840135 1 0 1
5021 240 9 0.275 -22.24562632014524 -9.598483255764377 -18.459552285689195 1 0 1
433 21 4 0.033 -21.491349335255194 -12.886655206911254 -14.447356263439685 0 1 0
8148 388 4 0.033 -13.936212914422834 -19.14280693770171 -24.837001416576157 0 1 1
5027 240 6 0.034 -19.758541234640656 -9.51608620328689 -19.405303593774427 1 0 1
5913 282 4 0.033 -17.06179160006113 -8.592572155019962 -16.0109871395353 -1 0 0
435 21 4 0.033 -19.13605669171362 -12.050768483382074 -17.9326975307085 0 1 0
427 21 3 0.132 -18.826138852338005 -14.628899833964853 -16.658396354883635 0 1 0
441 21 4 0.033 -19.22604332016808 -10.773328391743263 -15.000978025485495 0 1 0
438 21 1 -0.1 -19.142053894358618 -11.868940181304891 -15.020817836531814 0 1 0
429 21 6 0.034 -17.880050412087886 -14.167448220598846 -16.39530704270095 0 1 0
10944 944 10 -0.8 -16.15383204871143 -9.13728292234672 -18.989909435608634 -1 -2 1
5034 240 4 0.033 -17.99498014337763 -8.763237707361608 -21.107643797333285 1 0 1
2076 99 1 -0.1 -2.3242332474962204 -14.037233471983601 -20.16311291046408 1 0 1
1172 56 4 0.033 -23.66258911553128 -15.48325185537761 -24.109632014204802 0 1 0
439 21 4 0.033 -18.127488815912855 -12.090705748397424 -15.380388185600335 0 1 0
440 21 4 0.033 -19.098654514760774 -12.296823675913645 -14.009459651123016 0 1 0
5339 255 5 0.068 -17.371772783820447 -12.880622494790185 -21.202344289576992 1 0 0
8222 392 4 0.033 -23.575878513432823 -10.163641197088669 -13.366359007982428 1 0 1
8221 392 1 -0.1 -24.35280393135018 -10.182314382391302 -14.14343770116836 1 0 1
4383 209 4 0.033 -23.9345279800056 -10.783685167855555 -20.625695526851906 3 0 2
8420 401 4 0.033 -8.92471225285924 -24.68650105866881 -18.74365130238322 2 0 0
1169 56 1 -0.1 -23.178158826787524 -14.8961733694629 -24.9023989647192 0 1 0
5350 255 4 0.033 -16.248795722136816 -15.979482870674499 -19.33243889261197 1 0 0
5353 255 4 0.033 -15.438910388311669 -16.251306735331298 -21.782816887380033 1 0 0
10429 497 4 0.033 -13.083938606454506 -16.2565676028968 -24.111900581152856 0 0 1
10385 495 4 0.033 -13.770117900476585 -8.786243777384822 -16.64888570502948 1 1 0
6542 312 4 0.033 -7.910440014554695 -16.06454300768781 -15.570538441949203 1 0 1
1124 54 4 0.033 -9.406096497888884 -9.571780009011217 -21.22874351096076 0 0 1
5348 255 1 -0.1 -17.06342608739478 -15.35136143335185 -19.719290422302095 1 0 0
6550 312 4 0.033 -10.670319754772812 -16.275916973814823 -18.860427095457823 1 0 1
8753 417 4 0.033 -15.347587002952034 -16.675259687900663 -15.737870960202681 -1 0 1
8750 417 1 -0.1 -15.399471778991343 -16.191241841150244 -14.752554820807948 -1 0 1
5349 255 4 0.033 -17.002241124316793 -14.344129686810815 -19.283912568805682 1 0 0
6549 312 1 -0.1 -10.654030175347689 -16.379682821801698 -17.76645241533371 1 0 1
6551 312 4 0.033 -11.15096578357051 -15.626267769283876 -17.139368684681774 1 0 1
6534 312 7 0.791 -9.218672031836139 -16.02684837175061 -17.29056868152212 1 0 1
6541 312 1 -0.1 -8.954673244247644 -16.305783438989888 -15.81383519935639 1 0 1
6544 312 4 0.033 -9.53119665163037 -15.588879108637377 -15.212601552761914 1 0 1
8751 417 4 0.033 -14.75803824410707 -15.310465257434222 -14.60899716125222 -1 0 1
10426 497 1 -0.1 -12.546856978669117 -15.60612686362395 -23.40742676242062 0 0 1
5355 255 4 0.033 -15.80545860887031 -14.97970594631198 -22.967558961667116 1 0 0
5352 255 1 -0.1 -15.700360293140903 -15.189651377633242 -21.893924731133335 1 0 0
10424 497 6 0.034 -12.857241142902426 -16.514742396166294 -20.29095371673898 0 0 1
7824 373 4 0.033 -12.029021971707493 -9.767388329186511 -23.310514940869854 1 1 0
10437 497 4 0.033 -10.535021944714869 -14.29084402185757 -22.73884876326259 0 0 1
8752 417 4 0.033 -16.421131592707553 -15.929687883532543 -14.443340076902325 -1 0 1
7823 373 4 0.033 -12.742564992239584 -11.35401737329009 -23.71834024316812 1 1 0
10419 497 7 0.791 -11.263079266693152 -16.175181817729644 -22.959439546894902 0 0 1
7825 373 4 0.033 -13.540380864570576 -9.781136201227282 -24.338194385284464 1 1 0
957 46 4 0.033 -8.129325385876296 -10.455003266703164 -12.948329136048768 1 1 0
10435 497 4 0.033 -10.01929608596461 -15.43032858281115 -21.364237586376486 0 0 1
7832 373 4 0.033 -12.12573196262698 -9.737714844436631 -20.96564522690347 1 1 0
6535 312 2 -0.131 -8.94633525995183 -14.566592591060182 -17.730448227660425 1 0 1
6537 312 5 0.068 -9.155256721762683 -14.45111946500011 -18.78425555981 1 0 1
6536 312 5 0.068 -9.503454329241194 -13.848478530401371 -17.146134797971833 1 0 1
10428 497 4 0.033 -13.266219494251537 -15.275389471379976 -22.645230242844853 0 0 1
10390 495 4 0.033 -11.131930937459623 -10.857412913295917 -16.856173432604155 1 1 0
7830 373 1 -0.1 -12.865455512572542 -10.540248060198957 -21.09434117668701 1 1 0
10393 495 4 0.033 -12.224335714765012 -9.753527829406183 -14.651083253738214 1 1 0
10395 495 4 0.033 -13.888371480508747 -10.54241322194672 -14.624043330117146 1 1 0
5354 255 4 0.033 -14.939696042819845 -14.484233379411481 -21.531173574383583 1 0 0
10392 495 1 -0.1 -12.865031890111897 -10.56478610138513 -15.024153840370342 1 1 0
7815 373 7 0.791 -13.69746374952438 -9.979695408989764 -22.214290277634394 1 1 0
7833 373 4 0.033 -12.383578753848195 -11.49667748700273 -21.341020539548353 1 1 0
7827 373 4 0.033 -14.912929231920163 -11.792805736704805 -22.491471345855302 1 1 0
10379 495 5 0.068 -14.645727601104644 -11.262984284619952 -17.875517980183965 1 1 0
10380 495 5 0.068 -15.24554900899044 -11.01670050329382 -16.361198970783594 1 1 0
10376 495 9 0.275 -15.78284739200187 -14.01068137649684 -17.308342481321482 1 1 0
10375 495 8 -0.468 -15.866850612770905 -13.259670057318848 -16.734290711544972 1 1 0
10381 495 3 0.132 -14.523887536649095 -12.975473430140541 -16.458887964395927 1 1 0
10383 495 6 0.034 -14.282103205308927 -13.038315558175174 -15.403033721898147 1 1 0
10378 495 2 -0.131 -14.393098028037148 -11.470665880132701 -16.845693363605893 1 1 0