LAMMPS data file
# Generated by Playmol on 5-Feb-2024 at  1:01:10

10 atom types
8 bond types
13 angle types
10 dihedral types

88 atoms
80 bonds
148 angles
192 dihedrals

-4.70699978 4.70699978 xlo xhi
-4.70699978 4.70699978 ylo yhi
-4.70699978 4.70699978 zlo zhi
0.00000000 0.00000000 0.00000000 xy xz yz

Masses

1 12.01 # ca
2 12.01 # cs
3 12.01 # cw
4 1.008 # ha
5 1.008 # hs
6 1.008 # hw
7 14.01 # n
8 16.00 # o
9 1.008 # ho
10 35.45 # cl

# Elements: C? C? C? H? H? H? N? O? H? Cl?

Pair Coeffs # lj/cut/coul/long

1 0.066 3.50 # ca
2 0.066 3.50 # cs
3 0.066 3.50 # cw
4 0.030 2.50 # ha
5 0.030 2.60 # hs
6 0.030 2.20 # hw
7 0.170 3.25 # n
8 0.170 3.07 # o
9 0.000 0.00 # ho
10 0.148 3.77 # cl

Bond Coeffs # harmonic

1 340.0 1.099 # ca ha
2 490.0 1.498 # ca n
3 490.0 1.516 # cs n
4 340.0 1.0805 # cs hs
5 317.0 1.521 # cs cw
6 340.0 1.085 # cw hw
7 450.0 1.395 # cw o
8 553.0 0.949 # ho o

Angle Coeffs # harmonic

1 35.0 110.01 # ha ca ha
2 35.0 108.9 # ha ca n
3 51.8 110.2 # ca n cs
4 35.0 106.4 # n cs hs
5 70.0 116.6 # n cs cw
6 35.0 108.3 # cs cw hw
7 80.0 109.6 # cs cw o
8 35.0 109.3 # hs cs cw
9 35.0 111.6 # hw cw o
10 35.0 110.9 # cw o ho
11 35.0 108.73 # ca n ca
12 35.0 108.6 # hs cs hs
13 35.0 107.4 # hw cw hw

Dihedral Coeffs # opls

1 0.100 0.550 0.650 0.000 # cw cs n ca
2 0.000 0.000 0.825 0.000 # ca n ca ha
3 0.000 0.000 0.940 0.000 # cs n ca ha
4 0.000 1.000 0.700 0.000 # hs cs n ca
5 -6.000 -5.000 3.200 0.000 # o cw cs n
6 -0.500 -2.500 0.250 0.000 # o cw cs hs
7 -6.000 -7.000 0.750 0.000 # hw cw cs n
8 6.000 -3.000 2.000 0.000 # hw cw cs hs
9 -0.356 -0.174 0.350 0.000 # ho o cw cs
10 -3.000 1.000 -2.000 0.000 # ho o cw hw

Atoms

1 1 10 -0.800 0.00000000 0.00000000 9.41399956 # Cl1
2 2 10 -0.800 0.179998994 4.73000002 4.78399515 # Cl1
3 3 10 -0.800 5.19000101 0.190000996 4.64399576 # Cl1
4 4 10 -0.800 4.90999985 4.65999794 9.78399467 # Cl1
5 5 8 -0.468 6.45999908 7.65999985 6.67399788 # O1
6 5 9 0.275 6.12000084 8.35999870 6.02399683 # H1
7 5 7 0.791 5.30000019 4.44999886 4.96399879 # N1
8 5 2 -0.131 6.06999779 5.73000002 5.26399803 # C4
9 5 5 0.068 6.01000118 6.36999702 4.38399696 # H4A
10 5 5 0.068 7.10999918 5.44999886 5.41399622 # H4B
11 5 3 0.132 5.62000084 6.52999878 6.50399590 # C5
12 5 6 0.034 4.57000017 6.84999800 6.39399576 # H5A
13 5 6 0.034 5.69000101 5.90000010 7.38399696 # H5B
14 5 1 -0.100 3.89000010 4.77999878 4.54399681 # C1
15 5 4 0.033 3.92999911 5.42999792 3.66399598 # H1A
16 5 4 0.033 3.36999893 5.26999903 5.36399698 # H1B
17 5 4 0.033 3.38000107 3.84999990 4.29399681 # H1C
18 5 1 -0.100 5.26999903 3.52999902 6.17399788 # C2
19 5 4 0.033 4.71999979 2.62999892 5.90399408 # H2A
20 5 4 0.033 4.74999809 4.02999878 6.99399805 # H2B
21 5 4 0.033 6.28999901 3.27999711 6.46399879 # H2C
22 5 1 -0.100 5.98999977 3.72999811 3.82399607 # C3
23 5 4 0.033 6.02000093 4.40000010 2.96399498 # H3A
24 5 4 0.033 5.40999794 2.83999801 3.59399605 # H3B
25 5 4 0.033 7.00000000 3.45999908 4.13399696 # H3C
26 6 8 -0.468 3.10000110 2.77999902 11.4939976 # O1
27 6 9 0.275 3.63999796 3.45999908 11.0039997 # H1
28 6 7 0.791 4.60000086 -0.330000013 9.89399910 # N1
29 6 2 -0.131 4.48999977 1.09999800 10.4039984 # C4
30 6 5 0.068 4.98999977 1.74999797 9.68400002 # H4A
31 6 5 0.068 5.03999901 1.13999701 11.3439960 # H4B
32 6 3 0.132 3.05999994 1.62999904 10.6539936 # C5
33 6 6 0.034 2.57999992 1.87000096 9.69399929 # H5A
34 6 6 0.034 2.47000003 0.850000024 11.1439991 # H5B
35 6 1 -0.100 3.80999994 -0.530000985 8.61399269 # C1
36 6 4 0.033 4.18000078 0.159999996 7.85399914 # H1A
37 6 4 0.033 2.74999809 -0.330000013 8.82400036 # H1B
38 6 4 0.033 3.92999911 -1.56000102 8.29400063 # H1C
39 6 1 -0.100 4.11999893 -1.30000103 10.9439993 # C2
40 6 4 0.033 4.13000011 -2.30000091 10.5339994 # H2A
41 6 4 0.033 3.10999894 -1.03000295 11.2539997 # H2B
42 6 4 0.033 4.80000210 -1.25000000 11.8039951 # H2C
43 6 1 -0.100 6.05000210 -0.650002003 9.60399532 # C3
44 6 4 0.033 6.42000008 9.99800023E-03 8.81399441 # H3A
45 6 4 0.033 6.12000084 -1.69000196 9.26399517 # H3B
46 6 4 0.033 6.63000011 -0.510002017 10.5039959 # H3C
47 7 8 -0.468 1.95999897 5.99999809 11.8939962 # O1
48 7 9 0.275 1.33000004 5.52999878 12.5139980 # H1
49 7 7 0.791 -0.320001006 4.67000008 9.51399517 # N1
50 7 2 -0.131 1.12000096 5.09000015 9.78399467 # C4
51 7 5 0.068 1.59999895 5.27999878 8.82400036 # H4A
52 7 5 0.068 1.61999905 4.23999977 10.2539959 # H4B
53 7 3 0.132 1.28999901 6.32999802 10.6839972 # C5
54 7 6 0.034 1.85999894 7.07000017 10.1239948 # H5A
55 7 6 0.034 0.310000002 6.76999998 10.9139957 # H5B
56 7 1 -0.100 -1.07000101 5.77999687 8.79399681 # C1
57 7 4 0.033 -0.569998980 5.99999809 7.85399914 # H1A
58 7 4 0.033 -1.09000003 6.67000008 9.42399788 # H1B
59 7 4 0.033 -2.09000206 5.43999910 8.60399532 # H1C
60 7 1 -0.100 -1.00999999 4.28999901 10.8039989 # C2
61 7 4 0.033 -1.99000096 3.87999892 10.5639982 # H2A
62 7 4 0.033 -1.12000000 5.17999792 11.4239979 # H2B
63 7 4 0.033 -0.399998993 3.54999900 11.3240004 # H2C
64 7 1 -0.100 -0.310000986 3.45999908 8.61399269 # C3
65 7 4 0.033 0.100001000 3.75000000 7.64399910 # H3A
66 7 4 0.033 -1.33000100 3.08999991 8.50399971 # H3B
67 7 4 0.033 0.320001990 2.69999909 9.07399559 # H3C
68 8 8 -0.468 2.15000010 2.92999792 6.45399714 # O1
69 8 9 0.275 1.55999994 3.51999903 5.90399408 # H1
70 8 7 0.791 0.450001001 0.129998997 4.70399714 # N1
71 8 2 -0.131 1.64999998 0.959999025 5.13399696 # C4
72 8 5 0.068 1.80000198 1.70999897 4.35399485 # H4A
73 8 5 0.068 2.51999903 0.299998999 5.13399696 # H4B
74 8 3 0.132 1.54000103 1.64999998 6.50399590 # C5
75 8 6 0.034 0.490000010 1.75999796 6.77399683 # H5A
76 8 6 0.034 2.01999903 1.01999903 7.25400019 # H5B
77 8 1 -0.100 -0.740001023 1.01999903 4.41399622 # C1
78 8 4 0.033 -0.430000007 1.80000103 3.71399903 # H1A
79 8 4 0.033 -1.08000004 1.48000002 5.35399914 # H1B
80 8 4 0.033 -1.54000103 0.419999987 3.98399591 # H1C
81 8 1 -0.100 7.99999982E-02 -0.910001993 5.74399805 # C2
82 8 4 0.033 -0.740001023 -1.53000104 5.36399698 # H2A
83 8 4 0.033 -0.239998996 -0.400000006 6.66399622 # H2B
84 8 4 0.033 0.950001001 -1.54000103 5.95399714 # H2C
85 8 1 -0.100 0.800000012 -0.600000024 3.43399692 # C3
86 8 4 0.033 0.959999025 0.129998997 2.64399600 # H3A
87 8 4 0.033 -3.99990007E-02 -1.25000000 3.15399790 # H3B
88 8 4 0.033 1.70000100 -1.20000303 3.59399605 # H3C

Bonds

1 8 5 6 # O1 H1
2 7 5 11 # O1 C5
3 3 7 8 # N1 C4
4 2 7 14 # N1 C1
5 2 7 18 # N1 C2
6 2 7 22 # N1 C3
7 4 8 9 # C4 H4A
8 4 8 10 # C4 H4B
9 5 8 11 # C4 C5
10 6 11 12 # C5 H5A
11 6 11 13 # C5 H5B
12 1 14 15 # C1 H1A
13 1 14 16 # C1 H1B
14 1 14 17 # C1 H1C
15 1 18 19 # C2 H2A
16 1 18 20 # C2 H2B
17 1 18 21 # C2 H2C
18 1 22 23 # C3 H3A
19 1 22 24 # C3 H3B
20 1 22 25 # C3 H3C
21 8 26 27 # O1 H1
22 7 26 32 # O1 C5
23 3 28 29 # N1 C4
24 2 28 35 # N1 C1
25 2 28 39 # N1 C2
26 2 28 43 # N1 C3
27 4 29 30 # C4 H4A
28 4 29 31 # C4 H4B
29 5 29 32 # C4 C5
30 6 32 33 # C5 H5A
31 6 32 34 # C5 H5B
32 1 35 36 # C1 H1A
33 1 35 37 # C1 H1B
34 1 35 38 # C1 H1C
35 1 39 40 # C2 H2A
36 1 39 41 # C2 H2B
37 1 39 42 # C2 H2C
38 1 43 44 # C3 H3A
39 1 43 45 # C3 H3B
40 1 43 46 # C3 H3C
41 8 47 48 # O1 H1
42 7 47 53 # O1 C5
43 3 49 50 # N1 C4
44 2 49 56 # N1 C1
45 2 49 60 # N1 C2
46 2 49 64 # N1 C3
47 4 50 51 # C4 H4A
48 4 50 52 # C4 H4B
49 5 50 53 # C4 C5
50 6 53 54 # C5 H5A
51 6 53 55 # C5 H5B
52 1 56 57 # C1 H1A
53 1 56 58 # C1 H1B
54 1 56 59 # C1 H1C
55 1 60 61 # C2 H2A
56 1 60 62 # C2 H2B
57 1 60 63 # C2 H2C
58 1 64 65 # C3 H3A
59 1 64 66 # C3 H3B
60 1 64 67 # C3 H3C
61 8 68 69 # O1 H1
62 7 68 74 # O1 C5
63 3 70 71 # N1 C4
64 2 70 77 # N1 C1
65 2 70 81 # N1 C2
66 2 70 85 # N1 C3
67 4 71 72 # C4 H4A
68 4 71 73 # C4 H4B
69 5 71 74 # C4 C5
70 6 74 75 # C5 H5A
71 6 74 76 # C5 H5B
72 1 77 78 # C1 H1A
73 1 77 79 # C1 H1B
74 1 77 80 # C1 H1C
75 1 81 82 # C2 H2A
76 1 81 83 # C2 H2B
77 1 81 84 # C2 H2C
78 1 85 86 # C3 H3A
79 1 85 87 # C3 H3B
80 1 85 88 # C3 H3C

Angles

1 10 6 5 11 # H1 O1 C5
2 3 8 7 14 # C4 N1 C1
3 3 8 7 18 # C4 N1 C2
4 11 14 7 18 # C1 N1 C2
5 3 8 7 22 # C4 N1 C3
6 11 14 7 22 # C1 N1 C3
7 11 18 7 22 # C2 N1 C3
8 4 7 8 9 # N1 C4 H4A
9 4 7 8 10 # N1 C4 H4B
10 12 9 8 10 # H4A C4 H4B
11 7 5 11 8 # O1 C5 C4
12 5 7 8 11 # N1 C4 C5
13 8 9 8 11 # H4A C4 C5
14 8 10 8 11 # H4B C4 C5
15 9 5 11 12 # O1 C5 H5A
16 6 8 11 12 # C4 C5 H5A
17 9 5 11 13 # O1 C5 H5B
18 6 8 11 13 # C4 C5 H5B
19 13 12 11 13 # H5A C5 H5B
20 2 7 14 15 # N1 C1 H1A
21 2 7 14 16 # N1 C1 H1B
22 1 15 14 16 # H1A C1 H1B
23 2 7 14 17 # N1 C1 H1C
24 1 15 14 17 # H1A C1 H1C
25 1 16 14 17 # H1B C1 H1C
26 2 7 18 19 # N1 C2 H2A
27 2 7 18 20 # N1 C2 H2B
28 1 19 18 20 # H2A C2 H2B
29 2 7 18 21 # N1 C2 H2C
30 1 19 18 21 # H2A C2 H2C
31 1 20 18 21 # H2B C2 H2C
32 2 7 22 23 # N1 C3 H3A
33 2 7 22 24 # N1 C3 H3B
34 1 23 22 24 # H3A C3 H3B
35 2 7 22 25 # N1 C3 H3C
36 1 23 22 25 # H3A C3 H3C
37 1 24 22 25 # H3B C3 H3C
38 10 27 26 32 # H1 O1 C5
39 3 29 28 35 # C4 N1 C1
40 3 29 28 39 # C4 N1 C2
41 11 35 28 39 # C1 N1 C2
42 3 29 28 43 # C4 N1 C3
43 11 35 28 43 # C1 N1 C3
44 11 39 28 43 # C2 N1 C3
45 4 28 29 30 # N1 C4 H4A
46 4 28 29 31 # N1 C4 H4B
47 12 30 29 31 # H4A C4 H4B
48 7 26 32 29 # O1 C5 C4
49 5 28 29 32 # N1 C4 C5
50 8 30 29 32 # H4A C4 C5
51 8 31 29 32 # H4B C4 C5
52 9 26 32 33 # O1 C5 H5A
53 6 29 32 33 # C4 C5 H5A
54 9 26 32 34 # O1 C5 H5B
55 6 29 32 34 # C4 C5 H5B
56 13 33 32 34 # H5A C5 H5B
57 2 28 35 36 # N1 C1 H1A
58 2 28 35 37 # N1 C1 H1B
59 1 36 35 37 # H1A C1 H1B
60 2 28 35 38 # N1 C1 H1C
61 1 36 35 38 # H1A C1 H1C
62 1 37 35 38 # H1B C1 H1C
63 2 28 39 40 # N1 C2 H2A
64 2 28 39 41 # N1 C2 H2B
65 1 40 39 41 # H2A C2 H2B
66 2 28 39 42 # N1 C2 H2C
67 1 40 39 42 # H2A C2 H2C
68 1 41 39 42 # H2B C2 H2C
69 2 28 43 44 # N1 C3 H3A
70 2 28 43 45 # N1 C3 H3B
71 1 44 43 45 # H3A C3 H3B
72 2 28 43 46 # N1 C3 H3C
73 1 44 43 46 # H3A C3 H3C
74 1 45 43 46 # H3B C3 H3C
75 10 48 47 53 # H1 O1 C5
76 3 50 49 56 # C4 N1 C1
77 3 50 49 60 # C4 N1 C2
78 11 56 49 60 # C1 N1 C2
79 3 50 49 64 # C4 N1 C3
80 11 56 49 64 # C1 N1 C3
81 11 60 49 64 # C2 N1 C3
82 4 49 50 51 # N1 C4 H4A
83 4 49 50 52 # N1 C4 H4B
84 12 51 50 52 # H4A C4 H4B
85 7 47 53 50 # O1 C5 C4
86 5 49 50 53 # N1 C4 C5
87 8 51 50 53 # H4A C4 C5
88 8 52 50 53 # H4B C4 C5
89 9 47 53 54 # O1 C5 H5A
90 6 50 53 54 # C4 C5 H5A
91 9 47 53 55 # O1 C5 H5B
92 6 50 53 55 # C4 C5 H5B
93 13 54 53 55 # H5A C5 H5B
94 2 49 56 57 # N1 C1 H1A
95 2 49 56 58 # N1 C1 H1B
96 1 57 56 58 # H1A C1 H1B
97 2 49 56 59 # N1 C1 H1C
98 1 57 56 59 # H1A C1 H1C
99 1 58 56 59 # H1B C1 H1C
100 2 49 60 61 # N1 C2 H2A
101 2 49 60 62 # N1 C2 H2B
102 1 61 60 62 # H2A C2 H2B
103 2 49 60 63 # N1 C2 H2C
104 1 61 60 63 # H2A C2 H2C
105 1 62 60 63 # H2B C2 H2C
106 2 49 64 65 # N1 C3 H3A
107 2 49 64 66 # N1 C3 H3B
108 1 65 64 66 # H3A C3 H3B
109 2 49 64 67 # N1 C3 H3C
110 1 65 64 67 # H3A C3 H3C
111 1 66 64 67 # H3B C3 H3C
112 10 69 68 74 # H1 O1 C5
113 3 71 70 77 # C4 N1 C1
114 3 71 70 81 # C4 N1 C2
115 11 77 70 81 # C1 N1 C2
116 3 71 70 85 # C4 N1 C3
117 11 77 70 85 # C1 N1 C3
118 11 81 70 85 # C2 N1 C3
119 4 70 71 72 # N1 C4 H4A
120 4 70 71 73 # N1 C4 H4B
121 12 72 71 73 # H4A C4 H4B
122 7 68 74 71 # O1 C5 C4
123 5 70 71 74 # N1 C4 C5
124 8 72 71 74 # H4A C4 C5
125 8 73 71 74 # H4B C4 C5
126 9 68 74 75 # O1 C5 H5A
127 6 71 74 75 # C4 C5 H5A
128 9 68 74 76 # O1 C5 H5B
129 6 71 74 76 # C4 C5 H5B
130 13 75 74 76 # H5A C5 H5B
131 2 70 77 78 # N1 C1 H1A
132 2 70 77 79 # N1 C1 H1B
133 1 78 77 79 # H1A C1 H1B
134 2 70 77 80 # N1 C1 H1C
135 1 78 77 80 # H1A C1 H1C
136 1 79 77 80 # H1B C1 H1C
137 2 70 81 82 # N1 C2 H2A
138 2 70 81 83 # N1 C2 H2B
139 1 82 81 83 # H2A C2 H2B
140 2 70 81 84 # N1 C2 H2C
141 1 82 81 84 # H2A C2 H2C
142 1 83 81 84 # H2B C2 H2C
143 2 70 85 86 # N1 C3 H3A
144 2 70 85 87 # N1 C3 H3B
145 1 86 85 87 # H3A C3 H3B
146 2 70 85 88 # N1 C3 H3C
147 1 86 85 88 # H3A C3 H3C
148 1 87 85 88 # H3B C3 H3C

Dihedrals

1 4 9 8 7 14 # H4A C4 N1 C1
2 4 9 8 7 18 # H4A C4 N1 C2
3 4 9 8 7 22 # H4A C4 N1 C3
4 4 10 8 7 14 # H4B C4 N1 C1
5 4 10 8 7 18 # H4B C4 N1 C2
6 4 10 8 7 22 # H4B C4 N1 C3
7 9 6 5 11 8 # H1 O1 C5 C4
8 5 5 11 8 7 # O1 C5 C4 N1
9 6 5 11 8 9 # O1 C5 C4 H4A
10 6 5 11 8 10 # O1 C5 C4 H4B
11 1 11 8 7 14 # C5 C4 N1 C1
12 1 11 8 7 18 # C5 C4 N1 C2
13 1 11 8 7 22 # C5 C4 N1 C3
14 10 6 5 11 12 # H1 O1 C5 H5A
15 7 12 11 8 7 # H5A C5 C4 N1
16 8 12 11 8 9 # H5A C5 C4 H4A
17 8 12 11 8 10 # H5A C5 C4 H4B
18 10 6 5 11 13 # H1 O1 C5 H5B
19 7 13 11 8 7 # H5B C5 C4 N1
20 8 13 11 8 9 # H5B C5 C4 H4A
21 8 13 11 8 10 # H5B C5 C4 H4B
22 3 8 7 14 15 # C4 N1 C1 H1A
23 2 18 7 14 15 # C2 N1 C1 H1A
24 2 22 7 14 15 # C3 N1 C1 H1A
25 3 8 7 14 16 # C4 N1 C1 H1B
26 2 18 7 14 16 # C2 N1 C1 H1B
27 2 22 7 14 16 # C3 N1 C1 H1B
28 3 8 7 14 17 # C4 N1 C1 H1C
29 2 18 7 14 17 # C2 N1 C1 H1C
30 2 22 7 14 17 # C3 N1 C1 H1C
31 3 8 7 18 19 # C4 N1 C2 H2A
32 2 14 7 18 19 # C1 N1 C2 H2A
33 2 22 7 18 19 # C3 N1 C2 H2A
34 3 8 7 18 20 # C4 N1 C2 H2B
35 2 14 7 18 20 # C1 N1 C2 H2B
36 2 22 7 18 20 # C3 N1 C2 H2B
37 3 8 7 18 21 # C4 N1 C2 H2C
38 2 14 7 18 21 # C1 N1 C2 H2C
39 2 22 7 18 21 # C3 N1 C2 H2C
40 3 8 7 22 23 # C4 N1 C3 H3A
41 2 14 7 22 23 # C1 N1 C3 H3A
42 2 18 7 22 23 # C2 N1 C3 H3A
43 3 8 7 22 24 # C4 N1 C3 H3B
44 2 14 7 22 24 # C1 N1 C3 H3B
45 2 18 7 22 24 # C2 N1 C3 H3B
46 3 8 7 22 25 # C4 N1 C3 H3C
47 2 14 7 22 25 # C1 N1 C3 H3C
48 2 18 7 22 25 # C2 N1 C3 H3C
49 4 30 29 28 35 # H4A C4 N1 C1
50 4 30 29 28 39 # H4A C4 N1 C2
51 4 30 29 28 43 # H4A C4 N1 C3
52 4 31 29 28 35 # H4B C4 N1 C1
53 4 31 29 28 39 # H4B C4 N1 C2
54 4 31 29 28 43 # H4B C4 N1 C3
55 9 27 26 32 29 # H1 O1 C5 C4
56 5 26 32 29 28 # O1 C5 C4 N1
57 6 26 32 29 30 # O1 C5 C4 H4A
58 6 26 32 29 31 # O1 C5 C4 H4B
59 1 32 29 28 35 # C5 C4 N1 C1
60 1 32 29 28 39 # C5 C4 N1 C2
61 1 32 29 28 43 # C5 C4 N1 C3
62 10 27 26 32 33 # H1 O1 C5 H5A
63 7 33 32 29 28 # H5A C5 C4 N1
64 8 33 32 29 30 # H5A C5 C4 H4A
65 8 33 32 29 31 # H5A C5 C4 H4B
66 10 27 26 32 34 # H1 O1 C5 H5B
67 7 34 32 29 28 # H5B C5 C4 N1
68 8 34 32 29 30 # H5B C5 C4 H4A
69 8 34 32 29 31 # H5B C5 C4 H4B
70 3 29 28 35 36 # C4 N1 C1 H1A
71 2 39 28 35 36 # C2 N1 C1 H1A
72 2 43 28 35 36 # C3 N1 C1 H1A
73 3 29 28 35 37 # C4 N1 C1 H1B
74 2 39 28 35 37 # C2 N1 C1 H1B
75 2 43 28 35 37 # C3 N1 C1 H1B
76 3 29 28 35 38 # C4 N1 C1 H1C
77 2 39 28 35 38 # C2 N1 C1 H1C
78 2 43 28 35 38 # C3 N1 C1 H1C
79 3 29 28 39 40 # C4 N1 C2 H2A
80 2 35 28 39 40 # C1 N1 C2 H2A
81 2 43 28 39 40 # C3 N1 C2 H2A
82 3 29 28 39 41 # C4 N1 C2 H2B
83 2 35 28 39 41 # C1 N1 C2 H2B
84 2 43 28 39 41 # C3 N1 C2 H2B
85 3 29 28 39 42 # C4 N1 C2 H2C
86 2 35 28 39 42 # C1 N1 C2 H2C
87 2 43 28 39 42 # C3 N1 C2 H2C
88 3 29 28 43 44 # C4 N1 C3 H3A
89 2 35 28 43 44 # C1 N1 C3 H3A
90 2 39 28 43 44 # C2 N1 C3 H3A
91 3 29 28 43 45 # C4 N1 C3 H3B
92 2 35 28 43 45 # C1 N1 C3 H3B
93 2 39 28 43 45 # C2 N1 C3 H3B
94 3 29 28 43 46 # C4 N1 C3 H3C
95 2 35 28 43 46 # C1 N1 C3 H3C
96 2 39 28 43 46 # C2 N1 C3 H3C
97 4 51 50 49 56 # H4A C4 N1 C1
98 4 51 50 49 60 # H4A C4 N1 C2
99 4 51 50 49 64 # H4A C4 N1 C3
100 4 52 50 49 56 # H4B C4 N1 C1
101 4 52 50 49 60 # H4B C4 N1 C2
102 4 52 50 49 64 # H4B C4 N1 C3
103 9 48 47 53 50 # H1 O1 C5 C4
104 5 47 53 50 49 # O1 C5 C4 N1
105 6 47 53 50 51 # O1 C5 C4 H4A
106 6 47 53 50 52 # O1 C5 C4 H4B
107 1 53 50 49 56 # C5 C4 N1 C1
108 1 53 50 49 60 # C5 C4 N1 C2
109 1 53 50 49 64 # C5 C4 N1 C3
110 10 48 47 53 54 # H1 O1 C5 H5A
111 7 54 53 50 49 # H5A C5 C4 N1
112 8 54 53 50 51 # H5A C5 C4 H4A
113 8 54 53 50 52 # H5A C5 C4 H4B
114 10 48 47 53 55 # H1 O1 C5 H5B
115 7 55 53 50 49 # H5B C5 C4 N1
116 8 55 53 50 51 # H5B C5 C4 H4A
117 8 55 53 50 52 # H5B C5 C4 H4B
118 3 50 49 56 57 # C4 N1 C1 H1A
119 2 60 49 56 57 # C2 N1 C1 H1A
120 2 64 49 56 57 # C3 N1 C1 H1A
121 3 50 49 56 58 # C4 N1 C1 H1B
122 2 60 49 56 58 # C2 N1 C1 H1B
123 2 64 49 56 58 # C3 N1 C1 H1B
124 3 50 49 56 59 # C4 N1 C1 H1C
125 2 60 49 56 59 # C2 N1 C1 H1C
126 2 64 49 56 59 # C3 N1 C1 H1C
127 3 50 49 60 61 # C4 N1 C2 H2A
128 2 56 49 60 61 # C1 N1 C2 H2A
129 2 64 49 60 61 # C3 N1 C2 H2A
130 3 50 49 60 62 # C4 N1 C2 H2B
131 2 56 49 60 62 # C1 N1 C2 H2B
132 2 64 49 60 62 # C3 N1 C2 H2B
133 3 50 49 60 63 # C4 N1 C2 H2C
134 2 56 49 60 63 # C1 N1 C2 H2C
135 2 64 49 60 63 # C3 N1 C2 H2C
136 3 50 49 64 65 # C4 N1 C3 H3A
137 2 56 49 64 65 # C1 N1 C3 H3A
138 2 60 49 64 65 # C2 N1 C3 H3A
139 3 50 49 64 66 # C4 N1 C3 H3B
140 2 56 49 64 66 # C1 N1 C3 H3B
141 2 60 49 64 66 # C2 N1 C3 H3B
142 3 50 49 64 67 # C4 N1 C3 H3C
143 2 56 49 64 67 # C1 N1 C3 H3C
144 2 60 49 64 67 # C2 N1 C3 H3C
145 4 72 71 70 77 # H4A C4 N1 C1
146 4 72 71 70 81 # H4A C4 N1 C2
147 4 72 71 70 85 # H4A C4 N1 C3
148 4 73 71 70 77 # H4B C4 N1 C1
149 4 73 71 70 81 # H4B C4 N1 C2
150 4 73 71 70 85 # H4B C4 N1 C3
151 9 69 68 74 71 # H1 O1 C5 C4
152 5 68 74 71 70 # O1 C5 C4 N1
153 6 68 74 71 72 # O1 C5 C4 H4A
154 6 68 74 71 73 # O1 C5 C4 H4B
155 1 74 71 70 77 # C5 C4 N1 C1
156 1 74 71 70 81 # C5 C4 N1 C2
157 1 74 71 70 85 # C5 C4 N1 C3
158 10 69 68 74 75 # H1 O1 C5 H5A
159 7 75 74 71 70 # H5A C5 C4 N1
160 8 75 74 71 72 # H5A C5 C4 H4A
161 8 75 74 71 73 # H5A C5 C4 H4B
162 10 69 68 74 76 # H1 O1 C5 H5B
163 7 76 74 71 70 # H5B C5 C4 N1
164 8 76 74 71 72 # H5B C5 C4 H4A
165 8 76 74 71 73 # H5B C5 C4 H4B
166 3 71 70 77 78 # C4 N1 C1 H1A
167 2 81 70 77 78 # C2 N1 C1 H1A
168 2 85 70 77 78 # C3 N1 C1 H1A
169 3 71 70 77 79 # C4 N1 C1 H1B
170 2 81 70 77 79 # C2 N1 C1 H1B
171 2 85 70 77 79 # C3 N1 C1 H1B
172 3 71 70 77 80 # C4 N1 C1 H1C
173 2 81 70 77 80 # C2 N1 C1 H1C
174 2 85 70 77 80 # C3 N1 C1 H1C
175 3 71 70 81 82 # C4 N1 C2 H2A
176 2 77 70 81 82 # C1 N1 C2 H2A
177 2 85 70 81 82 # C3 N1 C2 H2A
178 3 71 70 81 83 # C4 N1 C2 H2B
179 2 77 70 81 83 # C1 N1 C2 H2B
180 2 85 70 81 83 # C3 N1 C2 H2B
181 3 71 70 81 84 # C4 N1 C2 H2C
182 2 77 70 81 84 # C1 N1 C2 H2C
183 2 85 70 81 84 # C3 N1 C2 H2C
184 3 71 70 85 86 # C4 N1 C3 H3A
185 2 77 70 85 86 # C1 N1 C3 H3A
186 2 81 70 85 86 # C2 N1 C3 H3A
187 3 71 70 85 87 # C4 N1 C3 H3B
188 2 77 70 85 87 # C1 N1 C3 H3B
189 2 81 70 85 87 # C2 N1 C3 H3B
190 3 71 70 85 88 # C4 N1 C3 H3C
191 2 77 70 85 88 # C1 N1 C3 H3C
192 2 81 70 85 88 # C2 N1 C3 H3C
