LAMMPS data file via write_data, version 29 Sep 2021, timestep = 10000090

11000 atoms
10 atom types
10000 bonds
8 bond types
18500 angles
13 angle types
24000 dihedrals
10 dihedral types

-5.874205820475218 43.53020406047476 xlo xhi
-5.430596875934533 43.08659511592823 ylo yhi
-6.1087671306404765 43.76476537064677 zlo zhi
-0.2511957974957379 0.636429639435041 -0.20583253556512582 xy xz yz

Masses

1 12.01
2 12.01
3 12.01
4 1.008
5 1.008
6 1.008
7 14.01
8 16
9 1.008
10 35.45

Pair Coeffs # lj/cut/coul/long

1 0.066 3.5
2 0.066 3.5
3 0.066 3.5
4 0.03 2.5
5 0.03 2.6
6 0.03 2.2
7 0.17 3.25
8 0.17 3.07
9 0 0
10 0.148 3.77

Bond Coeffs # harmonic

1 340 1.099
2 490 1.498
3 490 1.516
4 340 1.0805
5 317 1.521
6 340 1.085
7 450 1.395
8 553 0.949

Angle Coeffs # harmonic

1 35 110.01
2 35 108.9
3 51.8 110.2
4 35 106.4
5 70 116.6
6 35 108.3
7 80 109.6
8 35 109.3
9 35 111.6
10 35 110.9
11 35 108.73
12 35 108.6
13 35 107.4

Dihedral Coeffs # opls

1 0.1 0.55 0.65 0
2 0 0 0.825 0
3 0 0 0.94 0
4 0 1 0.7 0
5 -6 -5 3.2 0
6 -0.5 -2.5 0.25 0
7 -6 -7 0.75 0
8 6 -3 2 0
9 -0.356 -0.174 0.35 0
10 -3 1 -2 0

Atoms # full

245 24 9 0.275 18.420878593261488 2.8880224263476197 4.931052919343463 0 0 0
8814 805 1 -0.1 4.235022241756444 4.78716340633875 -3.852958235968844 0 0 1
10700 975 5 0.068 9.700684367955018 -3.87269241170838 -0.48307115920132215 0 1 1
256 24 4 0.033 18.069420119551015 -2.9454203939788997 5.149063073996436 0 0 0
9161 837 5 0.068 -5.121678612397831 3.0145299798013174 -3.7529995296520857 1 0 1
8813 805 6 0.034 6.667204940377424 6.10259969400632 -5.110581316894748 0 0 1
10609 967 7 0.791 -0.7929709652027093 -4.972632557002738 -0.374142902352669 0 1 1
9196 838 4 0.033 -5.572111511947469 1.0413425060178692 -1.8218460505243215 1 0 1
2134 197 1 -0.1 -5.193624433990789 -5.380369113088099 5.736260406479756 1 1 0
372 37 4 0.033 -4.508573197980104 3.995298493999862 4.685335110846259 1 0 0
8978 818 10 -0.8 14.248472851225943 0.7647679117344385 -4.653145537784887 0 0 1
101 13 6 0.034 14.577833900867882 3.4972304443468842 3.017593018431251 0 0 0
8970 816 4 0.033 11.18929006135157 1.0059764957340385 -6.010887486944659 0 0 1
10790 983 6 0.034 18.89079665209284 -3.8488734586351065 1.4710117379616037 0 1 1
10578 965 1 -0.1 5.537398086043414 -3.252740888720944 -4.128359385838367 0 1 1
10615 967 6 0.034 -1.4015486784345939 -2.877458907864767 1.5077026436773693 0 1 1
8873 808 5 0.068 -2.564414141097652 0.9080226020662295 -6.023243538199107 0 0 1
10658 973 5 0.068 11.525300395478236 -4.354140973839814 -4.740667309898873 0 1 1
9186 838 6 0.034 -2.6007507710585767 -0.9096524614760305 0.813495565504792 1 0 1
8961 816 5 0.068 7.397419130352055 0.21373608174284633 -4.224642105232524 0 0 1
8810 805 5 0.068 5.978209897249948 3.747249358112363 -5.662000643580031 0 0 1
244 24 8 -0.468 18.87932223179789 2.3668361576282746 5.578192896971988 0 0 0
10622 967 4 0.033 1.3185638169240161 -5.19456090426611 -0.857779180224461 0 1 1
8898 813 5 0.068 15.702132800456123 6.307304480580867 -5.622702260442581 0 0 1
9318 848 4 0.033 1.11010720891794 7.915281553173146 -4.469358322696804 0 0 1
9194 838 4 0.033 -4.9144922478124045 -2.061798251146553 -1.997926262288126 1 0 1
10620 967 1 -0.1 0.6965613505499869 -4.8484080903760605 -0.020457977670529814 0 1 1
8915 814 9 0.275 13.283884572853148 3.479766914792181 2.0121059783078383 0 0 1
9631 878 1 -0.1 -5.812607749203656 8.971853536885193 -2.312864573175719 1 0 1
10561 961 10 -0.8 0.8202715328621997 -4.85873497820808 4.8783444812692185 0 1 1
10608 967 9 0.275 -1.1273996723528064 -3.931690556968843 3.9003439628214114 0 1 1
8956 816 8 -0.468 7.2364768677976095 2.124603038888305 -2.5784048997079005 0 0 1
9171 837 4 0.033 -4.6505313606646865 6.568501250039543 -4.060362382081384 1 0 1
8885 808 1 -0.1 -1.1782695202749713 0.9496153292606688 -3.7584670493151022 0 0 1
8965 816 1 -0.1 9.515442478001674 -0.7867675393180313 -5.780883935483415 0 0 1
9408 856 4 0.033 11.31274423018256 8.767754941944363 -3.5613937273849516 0 0 1
10573 965 6 0.034 3.3786105330023677 -2.4577279451611265 -2.276236332176261 0 1 1
9622 878 5 0.068 -4.487029137306377 9.403405750429945 -0.01244764593524561 1 0 1
697 64 1 -0.1 18.649485490709502 9.317732000961191 6.276300765004057 0 0 0
1869 173 4 0.033 15.36867947147648 -3.7357675940861896 3.2782841226190342 0 1 0
1864 173 4 0.033 11.8922464067621 -4.5853971921338585 3.408572690012864 0 1 0
596 56 8 -0.468 8.263830062405775 9.715723998229791 2.2337395671217415 0 0 0
598 56 7 0.791 8.582916699700323 10.291723495057475 6.036589928011608 0 0 0
2127 197 4 0.033 -5.160154131176929 -2.8375682530897777 3.5436716839124927 1 1 0
10652 972 10 -0.8 14.969910638088807 -4.343060409743335 -0.7979836666212821 0 1 1
10624 967 1 -0.1 -1.400444872755567 -3.783228134048616 -1.0985333334926892 0 1 1
9331 851 10 -0.8 14.969720321813247 9.4270053705669 -4.895361367848471 0 0 1
10919 997 7 0.791 -5.727926433491197 -5.2679675469145595 -5.790959907912314 1 1 1
158 16 7 0.791 9.99749667403337 0.997674451664937 4.6353358107425375 0 0 0
9277 846 4 0.033 4.71619128719143 8.869549855871114 0.5777654208372835 0 0 1
8870 808 7 0.791 -0.9141202813846866 -0.019973038830093163 -4.773149642601958 0 0 1
10571 965 3 0.132 2.6888081009520364 -3.184309023036048 -2.692748004235996 0 1 1
175 16 4 0.033 8.237212902708789 1.642462417559532 5.821626551450496 0 0 0
9159 837 7 0.791 -4.561250269582953 4.575833944569199 -5.002360808046679 1 0 1
100 13 6 0.034 13.872191801821296 2.7082882105405313 4.52016050257202 0 0 0
166 16 4 0.033 8.861574393831662 2.1963716909025015 3.602102251143606 0 0 0
8833 806 6 0.034 3.817270439153239 -0.8107874416032821 2.495770550813912 0 0 1
527 48 4 0.033 0.47740051876820977 10.083635688789737 4.027814897428804 0 0 0
2129 197 4 0.033 -3.898212919243253 -4.109509054108589 3.657316956724733 1 1 0
171 16 4 0.033 11.968415300787974 1.9552876390244216 5.043341368407701 0 0 0
8907 813 4 0.033 12.11255317067264 6.239120497363694 -4.548483934468827 0 0 1
8845 806 4 0.033 2.9539701237951665 1.2544449232039425 -0.442640790558535 0 0 1
8856 807 1 -0.1 1.5685163324085265 5.360283847902894 -1.5483895952404962 0 0 1
8857 807 4 0.033 2.02440387992494 6.180974797719715 -2.1197223234542926 0 0 1
8859 807 4 0.033 2.4153190704803467 5.1951801824594925 -0.8675986595301772 0 0 1
8858 807 4 0.033 1.3266336975129294 4.514035568839823 -2.2065382162593035 0 0 1
22 5 1 -0.1 6.500977971945228 6.025245499009404 4.865557539294997 0 0 0
8964 816 6 0.034 7.704096509439779 2.722583923118314 -4.504472112146424 0 0 1
10927 997 4 0.033 -3.4935850316947104 -5.356858306269786 -5.89390986962726 1 1 1
9496 864 4 0.033 17.351696274321604 7.98980175856566 -5.351293345841302 0 0 1
10614 967 6 0.034 -0.007580333130986439 -3.732331228990044 1.8995648828897167 0 1 1
9361 854 6 0.034 12.803251550563383 8.959071094507541 0.6630603717853543 0 0 1
8803 803 10 -0.8 4.198419718100354 -0.035554583361318975 -5.925842328677486 0 0 1
8933 814 4 0.033 13.617012747803992 -0.5067025067848315 -2.5092781266025566 0 0 1
8944 815 1 -0.1 10.514774351291885 7.082228535179846 0.6888225177530227 0 0 1
8945 815 4 0.033 9.985377762382969 7.9513880544112086 1.1036750470980357 0 0 1
8947 815 4 0.033 11.151299125641925 6.716555919759333 1.5066995126545315 0 0 1
8946 815 4 0.033 11.03947413661825 7.437804390077231 -0.2089863931314051 0 0 1
1873 173 4 0.033 13.012449234570717 -3.3284787303668764 5.416437347806186 0 1 0
9406 856 4 0.033 11.021001671702939 10.515196191897873 -3.1776609855531333 0 0 1
1778 165 1 -0.1 6.0041352564802555 -4.304091993220071 3.7097989744188347 0 1 0
10653 973 8 -0.468 11.697280000159688 -2.6263913047898018 -2.5958498981996962 0 1 1
8888 808 4 0.033 -0.5781964086786497 1.8449166447728622 -3.97326457918759 0 0 1
10625 967 4 0.033 -1.0504067862484359 -2.7425171785438023 -1.0518267152206748 0 1 1
8969 816 1 -0.1 10.523811759949613 1.2467238242282257 -5.17005710752006 0 0 1
8883 808 4 0.033 -1.5334071199585118 -2.053704603002412 -5.140657477346564 0 0 1
8958 816 7 0.791 9.217087119330499 0.6169391307610649 -5.427262739424712 0 0 1
8 5 2 -0.131 4.315621313191622 4.749099107093449 5.369172675430109 0 0 0
9157 837 8 -0.468 -3.1199841871398584 3.0469986390248867 -1.7948526228503363 1 0 1
10789 983 3 0.132 18.10708366574984 -4.292952151305329 0.8661773246189091 0 1 1
9495 864 4 0.033 18.76688254522662 7.874420197519318 -4.371420116314344 0 0 1
9056 824 4 0.033 17.490398779667366 -0.45560265781122083 -3.442927519340682 0 0 1
8908 813 4 0.033 12.761242039059676 7.14646858655266 -5.808067350015027 0 0 1
9308 848 8 -0.468 -2.7071257431320026 10.61569013738012 -3.7335675007433764 0 0 1
10566 965 9 0.275 1.0132455545308126 -2.2235596546530525 -2.0562289651394376 0 1 1
99 13 3 0.132 14.728792571869642 3.1711171503579325 4.041354351091824 0 0 0
8960 816 5 0.068 8.871997956699373 0.2045508649043489 -3.502129213129048 0 0 1
8862 807 4 0.033 1.284742735382223 7.6804172814380856 0.18308823131316743 0 0 1
9179 838 9 0.275 -1.5902932604774282 0.6577811311477856 1.7714982481436827 1 0 1
9411 856 4 0.033 8.771910843997613 9.755153610734713 -3.0309153882169406 0 0 1
8892 812 10 -0.8 14.873782513848091 5.225422754291217 -0.061106935340607293 0 0 1
8950 815 4 0.033 10.343202485787955 4.535829246956417 -1.492808140510725 0 0 1
9031 823 6 0.034 16.46860161236635 4.831558880730026 -2.2697831443712215 0 0 1
10613 967 3 0.132 -1.0877421655250035 -3.8084815124031177 1.968060490999111 0 1 1
8890 810 10 -0.8 9.427090154058375 5.371912845140739 -4.810692085402289 0 0 1
700 64 4 0.033 18.63621967396465 8.225772624643042 6.1528744891938185 0 0 0
10705 975 4 0.033 7.7950587471327255 -4.07498501993504 -1.5662045356885308 0 1 1
156 16 8 -0.468 9.693171333604848 -2.2892044441430386 2.7695033408836522 0 0 0
8877 808 1 -0.1 0.49901279898131046 -0.27992584707815504 -4.666430286225983 0 0 1
1781 165 4 0.033 6.307907607283562 -4.661762803459593 2.7160137532236863 0 1 0
1764 164 10 -0.8 4.5361452420546975 4.300250194766969 0.23531731706539283 0 1 0
111 13 4 0.033 14.997616285484835 6.879683789058479 3.618022208489501 0 0 0
8972 816 4 0.033 10.083147693319741 2.2319869994117174 -4.963023355613204 0 0 1
10570 965 5 0.068 2.909677051564326 -2.4902207290897707 -4.727237292028242 0 1 1
8909 813 4 0.033 13.391788892337772 6.918647023721083 -4.1094611599353605 0 0 1
10656 973 2 -0.131 12.397287086681226 -4.463465514819734 -4.112035648675841 0 1 1
8818 805 1 -0.1 3.319302789244383 3.521631012849333 -5.78268672694587 0 0 1
9057 824 1 -0.1 18.01441201491726 0.24479600200840332 -5.677414301941149 0 0 1
685 64 9 0.275 18.7084730921013 6.729301496306632 2.046952602388366 0 0 0
10791 983 6 0.034 17.674225740119795 -3.6390852479026004 0.11630567379675405 0 1 1
8911 813 4 0.033 14.554071427438378 3.547246941086008 -4.501316637899808 0 0 1
9399 856 2 -0.131 10.109233086659788 8.80673239990076 -6.0162047445438045 0 0 1
17 5 4 0.033 3.8511816413057725 6.922590730205633 4.062167217776802 0 0 0
8891 811 10 -0.8 8.840606727478932 -1.2571742685793874 -0.8699750567915849 0 0 1
10795 983 4 0.033 18.79382308866498 -4.824043511463672 -2.556531570499288 0 1 1
9035 823 4 0.033 17.58168959495806 3.7201949002418044 -0.12746713493143336 0 0 1
9054 824 4 0.033 18.332077720682804 -2.0096513529598337 -3.426977238262766 0 0 1
9493 864 1 -0.1 18.094943377790596 8.6115680829845 -4.832834411811826 0 0 1
9368 854 4 0.033 16.630995304547387 8.524103752576124 -0.709378927570782 0 0 1
73 8 5 0.068 0.23144305193958928 1.6234429013824252 6.323449218382468 0 0 0
75 8 6 0.034 -0.5326047219913842 1.2051937541147995 3.548015633876652 0 0 0
8848 807 9 0.275 -3.3418947905280723 4.1263461152673395 0.7877591700395357 0 0 1
10607 967 8 -0.468 -1.7488195320048452 -3.959934961340982 3.1836507143814927 0 1 1
9026 823 2 -0.131 18.532962610022864 5.555604882964289 -2.324704374717779 0 0 1
48 7 9 0.275 -0.8207435106469194 6.455724546762772 5.739921620902315 0 0 0
10666 973 1 -0.1 14.05355801444301 -3.833646995157543 -5.894024175169236 0 1 1
9310 848 7 0.791 0.07187918284848697 9.219741239852805 -5.937396341333047 0 0 1
159 16 2 -0.131 9.48999059187439 -0.36462798247880207 4.101235799809977 0 0 0
8880 808 4 0.033 1.075400454369687 0.6310954016379932 -4.879989680192264 0 0 1
10579 965 4 0.033 6.454086167264946 -3.68546901341267 -4.552911099625827 0 1 1
76 8 6 0.034 -0.8259068039953209 -0.007251686950184119 4.720019791189037 0 0 0
10663 973 4 0.033 15.36506181797862 -4.827202427020958 -3.613680448963857 0 1 1
9273 846 6 0.034 2.6909415567723194 10.079858223760262 -2.560950220171749 0 0 1
1780 165 4 0.033 5.6267116824000505 -3.2849514719505173 3.546436934091087 0 1 0
8887 808 4 0.033 -2.267190802705424 1.0981582606510423 -3.7573848474246505 0 0 1
8879 808 4 0.033 0.8831005175530243 -0.6752126471817657 -3.715627841013664 0 0 1
253 24 1 -0.1 18.15037106395638 -1.877413378455487 5.395224004538502 0 0 0
92 12 10 -0.8 10.352495601451311 5.748538444635986 4.591904390182256 0 0 0
10569 965 5 0.068 2.274209657700287 -4.043333558279426 -4.572926509596951 0 1 1
8817 805 4 0.033 4.602946797590708 3.85283467737621 -3.4063662184932637 0 0 1
8844 806 4 0.033 4.134758111608261 1.7350401793606491 -1.6759067407757167 0 0 1
597 56 9 0.275 8.745189770589798 10.072976306659156 1.4980316987601787 0 0 0
8932 814 4 0.033 12.368772824287522 -0.6123740174755062 -1.16983039941361 0 0 1
10920 997 2 -0.131 -5.720466413009559 -3.750915728329729 -6.006091556411844 1 1 1
9163 837 3 0.132 -3.0966286166277923 3.677914672425288 -3.0499024126155305 1 0 1
8826 806 8 -0.468 2.782463729003632 -2.307704097123828 1.8602924826751712 0 0 1
8831 806 5 0.068 3.325937245962942 -1.7491793015653776 -0.4697799908365008 0 0 1
8843 806 1 -0.1 3.685023275633111 0.8705006148763635 -1.167874293315534 0 0 1
8846 806 4 0.033 3.013146974538326 0.2823466504116868 -1.8085519417584655 0 0 1
69 8 9 0.275 -2.383526269321996 1.9736317219508406 4.273540660867651 0 0 0
9193 838 4 0.033 -4.174583810506857 -0.5239691679384074 -2.085886512707824 1 0 1
97 13 5 0.068 15.845966985578558 3.758948440610641 5.56329624619992 0 0 0
8919 814 5 0.068 12.519451566004491 0.41537914394043124 0.7528323938003263 0 0 1
8931 814 1 -0.1 13.206509768694362 -0.045807562981169433 -1.5999495670526755 0 0 1
8934 814 4 0.033 12.958661061609074 0.9690116713428041 -1.9412594599853161 0 0 1
8906 813 1 -0.1 13.077328015316294 6.426380484659967 -5.040375370316413 0 0 1
8804 804 10 -0.8 5.782992554568681 0.2045282211201567 4.184927374669465 0 0 1
8816 805 4 0.033 4.852168479635833 5.635585572541277 -3.525682860525391 0 0 1
689 64 5 0.068 18.39405022443608 10.144315688618354 3.3905043700938933 0 0 0
8921 814 6 0.034 14.320943247539367 2.833021488086011 0.3756561154935616 0 0 1
2 2 10 -0.8 0.8927149321422175 5.812891143510367 4.18234381469345 0 0 0
9158 837 9 0.275 -3.151521391303962 3.6006270185967484 -1.0247169011470367 1 0 1
8540 780 10 -0.8 18.13471783758521 -4.68961537557615 -5.409127178009598 0 1 1
15 5 4 0.033 3.748689092839523 5.7246179053878485 2.8646721735192973 0 0 0
93 13 8 -0.468 15.557311635448242 2.116780153871137 3.896611184540589 0 0 0
173 16 1 -0.1 9.316345489995014 1.4352999826283839 5.840891543415237 0 0 0
9363 854 1 -0.1 14.867642881449491 10.202304558674948 -1.0896646844880307 0 0 1
2119 197 7 0.791 -5.1220834398604564 -3.885072804988761 5.436126657835372 1 1 0
8842 806 4 0.033 4.9363674348010775 1.3120230277661935 1.0985345887086453 0 0 1
9030 823 6 0.034 17.75766184820114 3.7833309690447767 -2.8718511118932146 0 0 1
78 8 4 0.033 1.7468277650327284 0.7863655924633255 2.8852828460739595 0 0 0
10581 965 4 0.033 5.5309041487467105 -2.15385609508886 -4.114519621417118 0 1 1
10580 965 4 0.033 5.498497748956371 -3.486629845926829 -3.055238756160571 0 1 1
112 13 4 0.033 13.522861857814728 7.344616609630831 4.368261508267244 0 0 0
105 13 4 0.033 16.19214398572616 6.830956384836355 5.597362354003993 0 0 0
10698 975 2 -0.131 9.754423475678642 -4.776065544193907 0.10725909238136921 0 1 1
9241 841 10 -0.8 -0.5370784244810044 10.085587659598263 -1.1067639763900043 0 0 1
9282 846 4 0.033 1.8965326374899456 10.487747086784625 0.6443080429480537 0 0 1
8930 814 4 0.033 16.46719795390868 0.729136074618406 -0.4473179435874588 0 0 1
8822 805 1 -0.1 3.367905737815313 6.004693848598306 -5.778386931141075 0 0 1
373 37 4 0.033 -4.103955140647826 5.115584056039503 3.375450777198136 1 0 0
71 8 2 -0.131 0.4689298613864034 1.664780704189502 5.270177660410777 0 0 0
692 64 6 0.034 18.202404065901312 7.64650245041452 4.052512262481107 0 0 0
1871 173 4 0.033 14.722344285834348 -3.732917321582995 5.659831102491177 0 1 0
83 8 4 0.033 2.4396704412405827 -1.1412624377178766 5.027832252659392 0 0 0
79 8 4 0.033 3.401582476661369 0.8292266915651526 3.5930217776518774 0 0 0
19 5 4 0.033 6.191316849292223 4.776003001551776 2.706208447956442 0 0 0
604 56 6 0.034 8.899736991733965 8.628907861435534 3.92854896849191 0 0 0
10568 965 2 -0.131 3.030615248684666 -3.3967562583895186 -4.151887040620437 0 1 1
371 37 4 0.033 -4.947548869898754 3.543586558027355 3.1034288852018594 1 0 0
363 37 3 0.132 -5.077125854133702 6.203867822842676 6.157458517797906 1 0 0
10916 996 10 -0.8 -5.295074176437199 -4.564307592954784 -0.28194947570398377 1 1 1
10715 975 4 0.033 9.817422017161054 -5.287349740314412 -2.5253273242268426 0 1 1
113 13 4 0.033 13.422326846706355 5.895487684827451 3.2715596912667415 0 0 0
82 8 4 0.033 0.7185295682953969 -0.988557893447112 5.6451610864400745 0 0 0
8821 805 4 0.033 3.8735499532409405 2.5964003447453976 -5.571627245759438 0 0 1
10564 964 10 -0.8 4.477888446405694 -5.300380989001613 -0.6513887407824122 0 1 1
526 48 4 0.033 -0.1346570460029473 8.650712327628844 4.914650980850016 0 0 0
77 8 1 -0.1 2.372411887518191 1.2031042930828313 3.6870228186004717 0 0 0
80 8 4 0.033 2.584420738385923 2.2795420408080256 3.7511993167780773 0 0 0
254 24 4 0.033 17.414546583549072 -1.2369892141468333 4.889046570404027 0 0 0
10695 975 8 -0.468 11.980725303637387 -4.240711787816279 1.0491827966691032 0 1 1
9412 856 4 0.033 9.273408436005122 8.029325372770197 -3.658092619947691 0 0 1
8959 816 2 -0.131 8.304762377228927 0.8000316169362063 -4.202929623876703 0 0 1
164 16 6 0.034 11.073101434427317 -0.9600842793175997 2.444840722325953 0 0 0
9405 856 1 -0.1 11.206349189113 9.780791130856954 -3.973967572491175 0 0 1
10699 975 5 0.068 9.343944696616843 -4.488196160948785 1.0644071275758442 0 1 1
8882 808 4 0.033 -1.5185385343775974 -1.7284066467388852 -3.3914479604624437 0 0 1
167 16 4 0.033 10.36413042645542 1.6433248541476095 2.6238768085582027 0 0 0
10654 973 9 0.275 12.168280459841453 -2.2434550464388376 -1.866378542068742 0 1 1
10572 965 6 0.034 2.9136659552870854 -4.2156686902825955 -2.4418688027199216 0 1 1
1768 165 2 -0.131 4.288090074831034 -4.606673443130196 5.440919736975722 0 1 0
8963 816 6 0.034 8.963965379791082 2.7528058990466393 -3.3533574547746747 0 0 1
602 56 3 0.132 8.771545875634393 9.625739138873692 3.5197731792047975 0 0 0
9360 854 3 0.132 13.282450458926107 9.284804237778333 1.580395483543236 0 0 1
18 5 1 -0.1 5.781250018360879 4.162148713040989 3.5203479187126145 0 0 0
9311 848 2 -0.131 -1.292930115961702 9.473756368954254 -5.479650137048443 0 0 1
520 48 4 0.033 -1.5516237229483183 9.773982036821687 1.7617253978850451 0 0 0
9033 823 4 0.033 17.724359438522466 5.423241256498842 0.3494644410005643 0 0 1
162 16 3 0.132 10.025509526023574 -0.9406818696932815 2.726647952185205 0 0 0
9410 856 4 0.033 8.183247136234646 8.799232230194361 -4.5843702721413 0 0 1
21 5 4 0.033 6.448513538734918 3.4982808012826974 4.087651799012816 0 0 0
8864 807 1 -0.1 -0.391269580521754 6.664524276431867 -1.629439700761134 0 0 1
8866 807 4 0.033 -1.2935227843798087 7.011708052997351 -1.1067371323036008 0 0 1
8952 815 1 -0.1 9.436093484729554 5.018144355749902 0.8349683213203747 0 0 1
8954 815 4 0.033 8.659432353052228 5.496615573531702 1.4478933688315685 0 0 1
20 5 4 0.033 5.021103409291666 3.52647533752636 3.0450524295520456 0 0 0
8852 807 5 0.068 -0.9785426602401598 4.162840816361816 -0.9948555816546856 0 0 1
8863 807 4 0.033 1.6293409592671297 6.068403054648931 1.035543061222235 0 0 1
8830 806 5 0.068 4.699699761367977 -1.932583853607048 0.5166551404560087 0 0 1
8849 807 7 0.791 0.41178833899051326 5.84719592693238 -0.6719148389557379 0 0 1
8860 807 1 -0.1 0.9027002711470419 6.702865029425703 0.5089997887978512 0 0 1
8861 807 4 0.033 0.15643374404532895 6.955615590370984 1.275172006399072 0 0 1
2126 197 1 -0.1 -4.921023618344825 -3.831272024844271 3.9475889041732515 1 1 0
8951 815 4 0.033 11.68286134153552 5.056153634287726 -0.47152046415491 0 0 1
8918 814 5 0.068 14.257015965024419 0.8483478979153594 1.4039601257301193 0 0 1
8937 815 7 0.791 9.749406040184127 6.05475444185082 -0.048578160588752084 0 0 1
8948 815 1 -0.1 10.78218239834695 5.4102359763325385 -0.9922989893236736 0 0 1
8949 815 4 0.033 11.113736380344127 6.159434085881212 -1.7248035236477701 0 0 1
603 56 6 0.034 9.754181187614561 10.085434856523303 3.5013040674081584 0 0 0
1770 165 5 0.068 3.692566996130699 -3.795271853801521 5.047919544353663 0 1 0
8802 802 10 -0.8 -0.6103606596971879 5.174850001698848 -4.996185966779425 0 0 1
8820 805 4 0.033 2.3401723169889674 3.450940129214059 -5.28859959983377 0 0 1
74 8 3 0.132 -0.819563932636306 1.0693521798504677 4.58552910040761 0 0 0
10660 973 6 0.034 13.75113506387097 -3.202995955978244 -3.0198959509553136 0 1 1
9028 823 5 0.068 18.16799909244166 6.527430813106591 -2.024992097605379 0 0 1
10704 975 1 -0.1 7.581418937633431 -4.976876858151348 -0.9756695882245214 0 1 1
9164 837 6 0.034 -2.6382229046065153 3.111945478077048 -3.854127861977611 1 0 1
525 48 1 -0.1 -0.24066119726457602 9.25209375871306 4.000924719101347 0 0 0
9162 837 5 0.068 -5.129336704165172 4.482730966000987 -2.938191041628206 1 0 1
8886 808 4 0.033 -0.8918342297742866 0.7127308470955794 -2.7242302976700614 0 0 1
1767 165 7 0.791 4.897248835578367 -5.222926701963059 4.2216951843825825 0 1 0
8971 816 4 0.033 10.928519887666868 0.9150986816964498 -4.203600608046806 0 0 1
9362 854 6 0.034 13.930416779731477 8.496875478147771 1.9498857949892425 0 0 1
8716 796 10 -0.8 -0.5966412998887186 -5.010645447782919 -5.6265890820985005 1 1 1
9329 849 10 -0.8 9.636914264546414 10.225041603602051 -0.23114287203949768 0 0 1
165 16 1 -0.1 9.939175011384366 1.9817336636408267 3.5792345164389054 0 0 0
8889 809 10 -0.8 14.673461536219225 -0.8235615714720075 5.051454349943656 0 0 1
8912 813 4 0.033 13.238576658089247 4.177118263702476 -3.75168605257468 0 0 1
10 5 5 0.068 3.4872665766628885 4.335116949975128 4.812450308881784 0 0 0
10667 973 4 0.033 14.856374777251776 -3.172423255195548 -5.5389518587070405 0 1 1
10706 975 4 0.033 7.152745425113217 -4.547911770646387 -0.059130538643693775 0 1 1
163 16 6 0.034 9.686328081596814 -0.48327623198003106 1.8030904952635982 0 0 0
170 16 4 0.033 11.741872911852283 0.38000897342457524 5.754410694000692 0 0 0
9183 838 5 0.068 -3.6547052682680854 0.8480482174995818 -0.3622755616836324 1 0 1
9370 854 4 0.033 16.56555652211249 8.314474882166653 1.1071959503370223 0 0 1
10626 967 4 0.033 -2.4861646034213534 -3.9448605209843 -1.1524189434148369 0 1 1
9155 835 10 -0.8 -5.168830679283122 0.34376292434436734 -4.962498572081543 1 0 1
9032 823 1 -0.1 18.298315499223467 4.532520888830809 0.057936603074885795 0 0 1
10565 965 8 -0.468 1.2210081214696586 -2.9700749003109426 -2.6040906908595485 0 1 1
9621 878 2 -0.131 -5.053204752197684 10.297822463567568 -0.22908550076277834 1 0 1
9317 848 1 -0.1 1.2256184219841875 8.88793018336855 -4.967747484732902 0 0 1
10655 973 7 0.791 13.526037193706545 -4.973544628874803 -5.028879535314469 0 1 1
9365 854 4 0.033 13.999750952042488 9.528532052449169 -1.1141181691374413 0 0 1
9314 848 3 0.132 -1.5160565847084537 10.728276593123425 -4.602829264247244 0 0 1
9275 846 1 -0.1 4.210255377839119 9.406382108549263 -0.23687314609621257 0 0 1
9181 838 2 -0.131 -4.170520837783249 0.3332301119499331 0.43545538624535673 1 0 1
70 8 7 0.791 1.7282732498635698 0.8566120482960898 5.00596958284623 0 0 0
1779 165 4 0.033 6.820490226832033 -4.409203558719898 4.438034725539325 0 1 0
9192 838 4 0.033 -3.3585347784308346 -1.6049417993807766 -1.065998919633083 1 0 1
98 13 5 0.068 16.189052179732137 4.705262928953669 4.29327362767282 0 0 0
516 48 6 0.034 -4.156681298261624 10.090858203566588 5.34184876268818 0 0 0
8851 807 5 0.068 0.24199321986959893 4.006436090308119 0.30475155519244534 0 0 1
362 37 5 0.068 -5.6162578238994465 6.995464350633923 4.298735432792956 1 0 0
8939 815 5 0.068 8.221309670397872 5.700663770998785 -1.7270633292008384 0 0 1
81 8 1 -0.1 1.47207145634167 -0.6293478770755896 4.9303531883363245 0 0 0
8840 806 4 0.033 6.145516753560038 1.3776240050726716 -0.1696839964468122 0 0 1
8850 807 2 -0.131 -0.48470283201272163 4.651735414955412 -0.16745243073951777 0 0 1
8853 807 3 0.132 -1.6759093128803884 5.03199062285278 0.7594873911428399 0 0 1
8854 807 6 0.034 -1.2102767984492875 5.514255375845996 1.6126248696879566 0 0 1
8855 807 6 0.034 -2.4092063649101947 5.664845054286741 0.27061962851257704 0 0 1
8847 807 8 -0.468 -2.4346410955203566 3.947509428978649 1.0011103331041538 0 0 1
365 37 6 0.034 -4.091757552853192 6.013296931913448 5.74518082944982 1 0 0
24 5 4 0.033 7.262722302272559 5.471666711030186 5.432211185856183 0 0 0
522 48 4 0.033 -3.7073079616207325 8.740121335956703 3.848650823124709 0 0 0
9024 823 9 0.275 17.888296483420287 4.521934851403793 -4.582115316983165 0 0 1
1866 173 1 -0.1 14.33677061891871 -4.0362682603039834 3.048765712993351 0 1 0
8914 814 8 -0.468 12.725473585296182 2.919081378301763 1.4882585432486133 0 0 1
8928 814 4 0.033 15.311065560312157 1.7945232696986395 -1.1096152215180428 0 0 1
8938 815 2 -0.131 8.531382901059402 6.400706891311289 -0.9646445372793009 0 0 1
8941 815 3 0.132 7.17610110860234 6.561518771730453 -0.07842938890675644 0 0 1
8942 815 6 0.034 7.002557575106047 5.562714218883636 0.30819242937724134 0 0 1
8943 815 6 0.034 7.338996302438313 7.245127759956716 0.7482370140088426 0 0 1
8935 815 8 -0.468 6.154868057504183 6.914133490236422 -0.9370247688706757 0 0 1
511 48 2 -0.131 -2.067025370704553 10.492815501649565 5.114880623673416 0 0 0
8895 813 7 0.791 13.787394405602399 5.2895364586619245 -5.538633862113347 0 0 1
2120 197 2 -0.131 -3.882460546792251 -3.3508818764641775 6.084247660343193 1 1 0
9182 838 5 0.068 -4.732929072828434 1.0852740239113874 0.9698822277773838 1 0 1
443 43 10 -0.8 4.258565246883989 10.368438753836509 5.177759374591206 0 0 0
517 48 1 -0.1 -1.8837086314057725 10.36609588208551 2.6259789332362526 0 0 0
160 16 5 0.068 8.426097786533441 -0.36231198400239484 4.289974683852053 0 0 0
8878 808 4 0.033 0.7552503404506306 -1.0331423937653896 -5.424595627118245 0 0 1
25 5 4 0.033 6.016627875614457 6.619834988627087 5.652755276083623 0 0 0
7 5 7 0.791 5.3073038975263325 5.287123601710275 4.3471240521198204 0 0 0
9189 838 4 0.033 -5.534660076855432 -2.163158001610869 1.1415916383148348 1 0 1
9191 838 1 -0.1 -4.378755373538471 -1.3343328546018256 -1.3721563814647109 1 0 1
172 16 4 0.033 12.06194994256073 0.6495520957505081 4.062411930462849 0 0 0
84 8 4 0.033 1.1574644968655428 -0.8388498672939552 3.8983917109782613 0 0 0
23 5 4 0.033 7.0107358331014495 6.665342759429013 4.13192436482807 0 0 0
1868 173 4 0.033 14.262846273967442 -4.588271767391933 2.1013271281174966 0 1 0
16 5 4 0.033 5.099582624242547 6.814620836806643 2.7812090827632936 0 0 0
10610 967 2 -0.131 -1.474525762004158 -4.990870135818805 1.0344376429159858 0 1 1
9055 824 4 0.033 17.07509518102996 -1.7098336071456286 -4.75539541754385 0 0 1
9172 837 4 0.033 -4.258721062679514 6.494987099149079 -5.785287012218439 1 0 1
9409 856 1 -0.1 8.968866485489874 9.065141680555845 -3.86332294560698 0 0 1
9494 864 4 0.033 17.623510332548097 9.243107529407313 -4.066858701088011 0 0 1
94 13 9 0.275 15.073245699654663 1.3396907633704256 4.146419298774267 0 0 0
10784 983 9 0.275 16.310357478122903 -4.034058398987904 1.101953063696973 0 1 1
8957 816 9 0.275 7.305187539704943 2.4837056503432855 -1.7026566207606475 0 0 1
8920 814 3 0.132 13.33466401762062 2.3809232618275917 0.36591601956285746 0 0 1
9029 823 3 0.132 17.381814897918126 4.801005627881559 -2.8548882659001205 0 0 1
10627 967 4 0.033 -0.9761020494044009 -4.032843235406649 -2.081101974997212 0 1 1
10612 967 5 0.068 -2.5499546246009834 -5.017625049895931 0.933283645475111 0 1 1
9401 856 5 0.068 10.197070585697775 7.799043215266197 -5.6363298140810505 0 0 1
9184 838 3 0.132 -3.1543604084836554 -0.1905611679592874 1.4081852225138878 1 0 1
9170 837 1 -0.1 -4.097153765516341 5.997294119867274 -4.818853576771911 1 0 1
8936 815 9 0.275 5.493827370073721 6.279028983906948 -1.1825273171733564 0 0 1
523 48 4 0.033 -2.5834104964393716 7.802882861385478 4.875395108873391 0 0 0
14 5 1 -0.1 4.492379055134375 6.236245305289768 3.491549236686337 0 0 0
9407 856 4 0.033 12.10042113455074 10.246971075278214 -4.411139256609024 0 0 1
524 48 4 0.033 -2.4279713773224127 7.808081121295328 3.0927727291119194 0 0 0
10696 975 9 0.275 12.814559778340985 -4.0947891861465315 0.6201869504056292 0 1 1
513 48 5 0.068 -1.7316693948259148 10.085891041318625 6.057975294320091 0 0 0
1762 162 10 -0.8 0.6364001726881967 -0.726789717874944 -0.2526988271049033 0 1 0
1860 173 6 0.034 16.6414990180925 -5.046532151328756 4.296908866309282 0 1 0
9367 854 1 -0.1 16.108910014248877 8.780821340271194 0.2230045982895934 0 0 1
9276 846 4 0.033 3.1737723713736474 9.124567001882337 -0.46946199242049325 0 0 1
521 48 1 -0.1 -2.6619874863395743 8.424150736508318 3.9722652826481806 0 0 0
10921 997 5 0.068 -4.833285395199649 -3.4777291075307644 -5.453124884495574 1 1 1
8955 815 4 0.033 10.15331540471957 4.670380282992114 1.5915777001993243 0 0 1
9398 856 7 0.791 9.952048618654494 9.687327406220671 -4.800330659533588 0 0 1
109 13 4 0.033 12.816364110462942 4.632705647837089 5.230205959689751 0 0 0
9165 837 6 0.034 -2.6951537163431856 4.675320385540598 -2.904249722674414 1 0 1
10661 973 6 0.034 12.838060072003323 -2.3369680583253842 -4.177974104778949 0 1 1
9034 823 4 0.033 18.75165575693373 4.237716795228344 1.0146899425597349 0 0 1
9 5 5 0.068 4.719327530043079 3.7917429807539333 5.665742866465825 0 0 0