LAMMPS data file via write_data, version 29 Sep 2021, timestep = 10000090

11000 atoms
10 atom types
10000 bonds
8 bond types
18500 angles
13 angle types
24000 dihedrals
10 dihedral types

-5.96967910804015 43.62567734802474 xlo xhi
-5.84996380709142 43.50596204709213 ylo yhi
-6.22459498921868 43.88059322920614 zlo zhi
0.15995142890560668 -0.231926198445334 0.22942625543105558 xy xz yz

Masses

1 12.01
2 12.01
3 12.01
4 1.008
5 1.008
6 1.008
7 14.01
8 16
9 1.008
10 35.45

Pair Coeffs # lj/cut/coul/long

1 0.066 3.5
2 0.066 3.5
3 0.066 3.5
4 0.03 2.5
5 0.03 2.6
6 0.03 2.2
7 0.17 3.25
8 0.17 3.07
9 0 0
10 0.148 3.77

Bond Coeffs # harmonic

1 340 1.099
2 490 1.498
3 490 1.516
4 340 1.0805
5 317 1.521
6 340 1.085
7 450 1.395
8 553 0.949

Angle Coeffs # harmonic

1 35 110.01
2 35 108.9
3 51.8 110.2
4 35 106.4
5 70 116.6
6 35 108.3
7 80 109.6
8 35 109.3
9 35 111.6
10 35 110.9
11 35 108.73
12 35 108.6
13 35 107.4

Dihedral Coeffs # opls

1 0.1 0.55 0.65 0
2 0 0 0.825 0
3 0 0 0.94 0
4 0 1 0.7 0
5 -6 -5 3.2 0
6 -0.5 -2.5 0.25 0
7 -6 -7 0.75 0
8 6 -3 2 0
9 -0.356 -0.174 0.35 0
10 -3 1 -2 0

Atoms # full

10702 975 6 0.034 11.950189032814842 -4.974863174312546 -0.22233776306264463 0 1 1
9173 837 4 0.033 -3.4224397979132566 4.702743172676944 -4.763492242380869 1 0 1
8901 813 6 0.034 14.664085910004776 5.894531203758115 -3.5223184478411445 0 0 1
10626 967 4 0.033 -0.39124537161084455 -5.192144420036247 -3.324966111785383 0 1 1
10705 975 4 0.033 7.559169219529327 -4.236287680373371 -0.4726567607995378 0 1 1
2120 197 2 -0.131 -5.518211016961342 -4.836071115283814 4.872264370111202 1 1 0
10663 973 4 0.033 13.044519513689403 -4.5161418742687225 -3.845742261942638 0 1 1
9406 856 4 0.033 7.695188445179212 7.741580586288509 -4.011703005305474 0 0 1
1865 173 4 0.033 14.952239854051756 -5.588097044119509 2.9922313853319746 0 1 0
10700 975 5 0.068 10.127954788168779 -4.393000251055218 1.9085864003292716 0 1 1
9363 854 1 -0.1 14.712740255980341 8.864276184409322 0.8947520601866206 0 0 1
10610 967 2 -0.131 -0.5915715597919897 -3.6013895354386314 -1.3252526055675897 0 1 1
8966 816 4 0.033 10.007150591079723 -2.036830862300346 -4.162027808140216 0 0 1
10 5 5 0.068 4.860926441733955 4.997600373009968 3.063046693506344 0 0 0
6953 633 10 -0.8 -5.144507513437414 -5.229734730908417 -1.2644168419293198 1 0 1
10617 967 4 0.033 -1.4232917374368999 -5.405723262509397 0.5322049902872434 0 1 1
1782 165 1 -0.1 4.038164876119985 -5.4063081926826415 5.529523825367042 0 1 0
8971 816 4 0.033 12.505233399180423 0.27580670250781036 -4.472542077375568 0 0 1
10621 967 4 0.033 1.711679865624738 -4.802070308196412 -0.493011549577802 0 1 1
9189 838 4 0.033 -3.9249146707387634 0.7357410125257173 -0.07972778444667927 1 0 1
8819 805 4 0.033 3.0120911494349105 2.4888657273695376 -4.064768952411834 0 0 1
8907 813 4 0.033 15.086423518436249 6.732704723501919 -5.93697357754761 0 0 1
10937 997 4 0.033 -3.9014967332061685 -2.6750961378975777 -5.87365340666791 1 1 1
8964 816 6 0.034 7.87427395544696 -1.3284910486090729 -5.630184854688319 0 0 1
616 56 4 0.033 7.88095272849675 7.61848375687104 4.055916874003021 0 0 0
2025 185 10 -0.8 10.360161859047082 -5.261574310857932 -4.037228970405003 0 1 0
11 5 3 0.132 5.135455427027096 5.8388308535083855 4.964240576953671 0 0 0
8854 807 6 0.034 -3.114650472744196 6.132494818775773 -0.20299918963787356 0 0 1
8897 813 5 0.068 14.419836071415965 3.277650076001931 -5.0600596020123305 0 0 1
105 13 4 0.033 15.49025171350261 3.3308675569890336 4.187599371142893 0 0 0
8876 808 6 0.034 -1.350447224532547 -1.0717907192169271 -5.473130632481177 0 0 1
9281 846 4 0.033 4.5139710623964024 8.8133426826906 -2.743233847108921 0 0 1
10611 967 5 0.068 -0.7302857258310528 -3.172825331009756 -0.3431064460309967 0 1 1
10698 975 2 -0.131 10.319417766617068 -5.183005305753416 1.196729513803156 0 1 1
9365 854 4 0.033 13.969402418901264 9.485822201010404 1.4133370251703532 0 0 1
8890 810 10 -0.8 9.25821410111606 0.3448147955256009 -0.0778898945822668 0 0 1
1859 173 3 0.132 15.745236171811364 -3.3575973214081114 6.179337449937989 0 1 0
10580 965 4 0.033 2.0958298972587546 -2.5243459851389147 -5.877458347594063 0 1 1
8873 808 5 0.068 0.2903789681248621 0.7320258628936587 -5.817866014833256 0 0 1
10703 975 6 0.034 10.912635437461034 -3.5831200479291057 0.12205451856420702 0 1 1
10696 975 9 0.275 13.376210928426303 -4.111564208488566 0.9572830422256162 0 1 1
10609 967 7 0.791 -0.15751781036269313 -5.020271858708782 -1.1673555317050281 0 1 1
3963 363 10 -0.8 9.786322417907668 4.38959385985653 -5.52024973490452 0 1 0
10713 975 4 0.033 9.903254080365192 -5.586129589659904 -1.3300757574601851 0 1 1
10919 997 7 0.791 -5.318460664928696 -4.3470969938457005 -5.684058774554911 1 1 1
1765 165 8 -0.468 4.078999265415454 -4.298809773640057 0.8596084644974233 0 1 0
9028 823 5 0.068 18.544285631234658 6.471022061577335 -1.3978500579048623 0 0 1
1869 173 4 0.033 13.322359935731264 -3.8441978209260705 4.883643722243541 0 1 0
9412 856 4 0.033 10.046311887964416 8.758650537315596 -4.094295235061892 0 0 1
600 56 5 0.068 9.171752708797694 7.861593232729895 2.5203056037617078 0 0 0
8852 807 5 0.068 -1.2291160217041481 5.734187885017676 -2.3968231875292596 0 0 1
9270 846 5 0.068 2.6413122439850585 8.513634549466895 -1.2434312444831965 0 0 1
9044 824 8 -0.468 17.28883790123124 -2.8786188815060916 -2.7581686947412534 0 0 1
10926 997 1 -0.1 -4.396660996193097 -5.383568080729095 -5.197068146201085 1 1 1
9311 848 2 -0.131 -0.5500139680819225 8.396050755399063 -4.605220976928068 0 0 1
167 16 4 0.033 10.875394087679531 1.7397821051011726 4.205479831669761 0 0 0
10707 975 4 0.033 7.950283805179808 -3.839011867677469 1.2067101828696547 0 1 1
250 24 3 0.132 18.37171950308368 2.306969564886639 5.759310387066632 0 0 0
10936 997 4 0.033 -5.49382850484009 -2.1334982680936574 -5.382215886511856 1 1 1
8807 805 7 0.791 3.4828762254518586 4.346426743010554 -4.774434278229068 0 0 1
10660 973 6 0.034 16.902533028578862 -5.405238215013344 -4.090540058587418 0 1 1
8845 806 4 0.033 3.1522372754647083 -1.6107457947542418 -0.11274632188751976 0 0 1
8856 807 1 -0.1 0.006915440396464523 4.22410150376313 -0.6389692180733642 0 0 1
8857 807 4 0.033 -0.09455197106551934 4.990820986755371 0.1418488983987478 0 0 1
8859 807 4 0.033 0.3369203493568071 3.412579202469683 0.02460654042246624 0 0 1
8858 807 4 0.033 0.7273983505846121 4.476042867770498 -1.4296816450379293 0 0 1
8956 816 8 -0.468 6.721084482281396 0.3687668406932662 -5.179695440379318 0 0 1
9284 846 4 0.033 5.860445269086397 9.967389010179037 0.7762812138634549 0 0 1
10661 973 6 0.034 15.90931193868162 -5.064234153622684 -2.8305305076272007 0 1 1
9194 838 4 0.033 -2.9634349030295386 -1.638254447396143 -0.8465132791609671 1 0 1
376 37 4 0.033 -4.364789823147221 6.1585159301833095 3.5382810354830703 1 0 0
8960 816 5 0.068 9.22372961563992 1.3646806610159765 -4.826128281917237 0 0 1
377 37 4 0.033 -4.412380638694536 5.0493790380297865 2.0833686290584357 1 0 0
8933 814 4 0.033 13.335957633668091 1.8666600837313048 -0.3733786516055302 0 0 1
8944 815 1 -0.1 8.379057442271622 3.584827046222324 -1.0121262757181642 0 0 1
8945 815 4 0.033 8.987963147128436 3.3789768027306932 -1.9035733174208644 0 0 1
8947 815 4 0.033 8.136446251698176 2.820878765073635 -0.26024504539016124 0 0 1
8946 815 4 0.033 7.4491416190358235 4.102152118259849 -1.2867412021158495 0 0 1
10578 965 1 -0.1 2.561912591222645 -3.255384809414612 -5.202066697528725 0 1 1
8 5 2 -0.131 4.292036210374993 5.034445365844422 3.980925972187473 0 0 0
9400 856 5 0.068 7.302694424667246 10.038879208119722 -6.1339389897516785 0 0 1
8935 815 8 -0.468 12.627426852789487 3.913267493047072 1.3904637977423775 0 0 1
520 48 4 0.033 -2.703415088870542 8.135633545219786 2.6878276882185403 0 0 0
8958 816 7 0.791 10.465783955310183 -0.18813451011324292 -5.145368517514338 0 0 1
10583 965 4 0.033 5.0245318619849355 -2.811752792390018 -6.139087479386736 0 1 1
375 37 4 0.033 -4.655558379795148 4.384455866188092 3.769265448123468 1 0 0
9187 838 1 -0.1 -4.424691185024186 0.20960260379371198 0.7456222283068383 1 0 1
110 13 1 -0.1 13.292763643858466 5.820689283330896 3.889385453585179 0 0 0
8955 815 4 0.033 9.03216163652636 5.66133392864047 1.6616722184584933 0 0 1
2121 197 5 0.068 -4.592110246707528 -4.556816624848494 4.390798166179442 1 1 0
262 24 4 0.033 17.453208166364174 -0.09604596821137011 2.637101473592331 0 0 0
10701 975 3 0.132 11.497308656061367 -4.38223846213017 0.5656607084306469 0 1 1
253 24 1 -0.1 17.78517464627182 -0.6130368818405331 5.02030061960278 0 0 0
9283 846 1 -0.1 5.127450875682615 10.58508773381233 0.23872933345754443 0 0 1
684 64 8 -0.468 17.25663607645252 9.372456168900936 2.860787976363767 0 0 0
1808 167 9 0.275 -1.1212825641006277 -5.781972608047942 5.772357649148548 0 1 0
8821 805 4 0.033 4.650343180833466 2.5579492025374893 -3.973610201704763 0 0 1
8862 807 4 0.033 -0.882300688217535 3.2513029282526817 -3.1782314154648277 0 0 1
8953 815 4 0.033 7.83897182828691 4.417927427358292 1.4134818696974651 0 0 1
602 56 3 0.132 10.56483622417274 9.477114389727276 1.8189247501295682 0 0 0
8972 816 4 0.033 11.414070261657935 -0.030767553159677802 -3.0933479002985935 0 0 1
8950 815 4 0.033 10.15643673444311 6.428375310785856 -0.5399496094239913 0 0 1
10574 965 1 -0.1 4.127552838704329 -5.253571612475374 -5.2671848008046895 0 1 1
8818 805 1 -0.1 3.793120172754316 3.2388012274943425 -3.8766844771606763 0 0 1
103 13 4 0.033 14.611974780433117 4.09559754390083 2.772464155970452 0 0 0
10573 965 6 0.034 0.842363890822106 -5.355727076431812 -5.681394548988392 0 1 1
8900 813 6 0.034 16.09110948201034 5.0407608781189595 -3.7334581707089627 0 0 1
8893 813 8 -0.468 14.482088982370485 4.021765537342461 -2.692754951363381 0 0 1
2118 197 9 0.275 -5.8340985533725425 -1.7165614429096325 4.805941420924654 1 1 0
256 24 4 0.033 16.960045815118594 0.0895124954643369 5.202990261268683 0 0 0
10613 967 3 0.132 0.1222633943038239 -2.4682181053265597 -2.2044888674251943 0 1 1
9188 838 4 0.033 -5.268319768042059 0.8789840940611834 0.9647278123609615 1 0 1
8967 816 4 0.033 11.52357839906233 -2.1544782906601254 -4.9959832767525425 0 0 1
8450 770 10 -0.8 4.304610478691905 4.5739384479089065 -0.5194138203316108 0 1 1
8820 805 4 0.033 3.5957266288613186 3.5748126426856444 -2.8490789855775156 0 0 1
518 48 4 0.033 -1.23940497433046 7.392657301724697 2.0842720088613635 0 0 0
1866 173 1 -0.1 13.232856791722984 -4.936134004545328 4.79724050727793 0 1 0
8869 808 9 0.275 -1.7886162069844551 -0.4423700417089984 -3.7335086234506827 0 0 1
96 13 2 -0.131 14.069152855474966 4.924356396747131 6.033772947581568 0 0 0
10665 973 4 0.033 14.63029621781881 -3.7799000595436913 -3.798814943496929 0 1 1
10034 914 10 -0.8 3.688498904215581 8.722753599764907 -5.801125745496084 1 0 1
13 5 6 0.034 5.9930613060670215 5.178354117829999 5.038345599080229 0 0 0
10607 967 8 -0.468 -0.6514543951556769 -1.3224319811748468 -2.257674503964836 0 1 1
1784 165 4 0.033 4.84991878381925 -4.7689083041389395 5.907107499503546 0 1 0
9409 856 1 -0.1 10.062178327333324 8.470912780262282 -5.154860979151871 0 0 1
608 56 4 0.033 7.564346733595564 9.236631802467185 2.6023287558536854 0 0 0
9310 848 7 0.791 -1.4375433690393067 9.154553065854532 -5.628331536192537 0 0 1
25 5 4 0.033 5.519243896266519 2.7601761215670835 3.5370867355846745 0 0 0
10625 967 4 0.033 1.2072905345031215 -5.045139021774658 -2.709483442707235 0 1 1
374 37 1 -0.1 -4.787239943167375 5.244517806630741 3.0978803885019683 1 0 0
8496 775 9 0.275 8.659625561951511 -5.068303421436259 -5.205646121313855 0 1 1
255 24 4 0.033 17.44507735285477 -1.4659387658055805 4.416385429125581 0 0 0
9271 846 5 0.068 2.690545764154751 9.431232463777807 0.31207914747655074 0 0 1
9622 878 5 0.068 -5.338863769450417 8.050914854569049 -2.455314295444725 1 0 1
10615 967 6 0.034 0.2591887311192206 -2.8040852532542093 -3.227088331815917 0 1 1
9033 823 4 0.033 17.300505423111883 4.67173072035161 -1.2139035418685173 0 0 1
1766 165 9 0.275 3.7220087779102236 -4.482478178195251 -0.0003044931092395231 0 1 0
685 64 9 0.275 16.422776887646155 9.662222110543565 3.2090720115126103 0 0 0
10784 983 9 0.275 15.739632779845529 -5.678576049871658 1.0139323756804322 0 1 1
9312 848 5 0.068 -0.36679930081965 7.356172834547686 -4.834507562479588 0 0 1
9369 854 4 0.033 16.651561469397354 10.505280004765241 0.9269047619753588 0 0 1
10704 975 1 -0.1 8.366330005408626 -4.243032629080929 0.27316738924874073 0 1 1
7041 641 10 -0.8 -0.8257131582593588 10.450761992447074 -1.137078895618747 0 0 1
1867 173 4 0.033 12.44603599448969 -5.1436512964418615 5.535916541754384 0 1 0
10608 967 9 0.275 -0.3280959752563289 -0.626607055919036 -1.6992091923806463 0 1 1
8824 805 4 0.033 2.145622722808006 6.001516006519443 -4.909990777766032 0 0 1
10576 965 4 0.033 3.533786800489199 -5.734598978346359 -4.477341962511934 0 1 1
9405 856 1 -0.1 7.799352503462481 7.531545426718876 -5.085424842072802 0 0 1
8827 806 9 0.275 5.894419743593669 -2.770804648379352 -3.584195163140083 0 0 1
81 8 1 -0.1 -1.4912871606497125 -0.09549655483148642 4.159794192494013 0 0 0
8844 806 4 0.033 2.4938530391343883 0.029017439504013927 0.26059000945440136 0 0 1
9374 854 4 0.033 15.861495531621637 7.915476226068919 -1.658830291740781 0 0 1
8932 814 4 0.033 13.166497213591194 1.2254045049293167 1.3189458608770916 0 0 1
104 13 4 0.033 13.721410202399277 3.253397867991734 3.8758167091712235 0 0 0
9357 854 2 -0.131 14.263673601065243 10.102496884781427 -1.3368517597795533 0 0 1
9191 838 1 -0.1 -3.578415588682 -1.890833112968989 0.028591879907934548 1 0 1
8831 806 5 0.068 6.5124161470372455 -0.640710007254689 -1.0195948142143223 0 0 1
8843 806 1 -0.1 3.1371031185162788 -0.5538023697537214 -0.413474983058304 0 0 1
8846 806 4 0.033 2.7246749687689626 -0.37779714595976877 -1.4168474216187876 0 0 1
10619 967 4 0.033 -2.2399355896310107 -5.472168890516771 -0.9911252305130356 0 1 1
10567 965 7 0.791 3.3912807158300105 -4.175406006323375 -6.0953273032633914 0 1 1
9269 846 2 -0.131 3.249796794389449 9.051909062806416 -0.5310393607746446 0 0 1
8919 814 5 0.068 16.146724496153748 0.40595855369378714 -0.7751589708922815 0 0 1
8931 814 1 -0.1 13.851247618001521 1.3983988642360285 0.47692909721608245 0 0 1
8874 808 3 0.132 -1.5658049180746716 -0.01008482963065023 -5.5333279538728934 0 0 1
9198 838 4 0.033 -5.735283119430348 -3.005038262496418 1.1571688165321907 1 0 1
9049 824 5 0.068 18.643206335339503 -0.7065568217016401 -2.9259145588329067 0 0 1
9398 856 7 0.791 8.69410473331032 8.57816815523335 -5.800742297406644 0 0 1
7 5 7 0.791 3.7906512661452583 3.582065935095249 4.148780528244071 0 0 0
9316 848 6 0.034 0.25877548763593883 9.822559997812226 -3.386913632155553 0 0 1
365 37 6 0.034 -5.064846650751075 4.753180408004971 5.726564311986552 1 0 0
9193 838 4 0.033 -2.9178748962112744 -1.8040038806642376 0.9026445590104126 1 0 1
9266 846 8 -0.468 2.6340054999947458 7.227112093625113 0.9016338941906508 0 0 1
10579 965 4 0.033 1.7429280278680352 -3.762554523845191 -4.673084212248456 0 1 1
9321 848 1 -0.1 -2.6713195319125593 8.31337508160745 -5.7911279228631365 0 0 1
10695 975 8 -0.468 12.561718729359152 -4.124210192303122 1.4441407027418975 0 1 1
9358 854 5 0.068 14.618665904375492 10.51278486189357 -2.271270380471023 0 0 1
612 56 4 0.033 10.585155624309325 9.58335597303377 5.3155987567130705 0 0 0
8842 806 4 0.033 5.993283901428928 0.2199586058396511 1.1539646282186817 0 0 1
2122 197 5 0.068 -5.267457631909659 -5.023600751455846 5.906415122536506 1 1 0
9314 848 3 0.132 0.7284613220234787 9.122105684065389 -4.0695579605957946 0 0 1
102 13 1 -0.1 14.61062908472846 3.898824173900317 3.8537198205475036 0 0 0
10673 973 4 0.033 16.42337769609573 -4.124210109467275 -5.749518178178894 0 1 1
10620 967 1 -0.1 0.7857161570599775 -5.151520666218666 -0.015254920762391322 0 1 1
261 24 1 -0.1 18.05119055435594 0.717853664211593 3.070444742250924 0 0 0
175 16 4 0.033 11.208099565111176 -0.9428730449025158 3.393161948339854 0 0 0
10935 997 4 0.033 -4.572637939519625 -2.7271469761829197 -4.249719897827455 1 1 1
9354 854 8 -0.468 12.373651943237508 10.034330357339861 -2.7560422625651744 0 0 1
8930 814 4 0.033 12.873168650542436 -1.202488446834272 -1.1784612310788383 0 0 1
9372 854 4 0.033 16.832406098784432 8.414257126784438 -0.2706082837771957 0 0 1
9038 823 4 0.033 18.085399629247945 6.536692171369278 1.0304975830698346 0 0 1
111 13 4 0.033 12.41287510027158 5.196724552171512 3.679042665361248 0 0 0
9197 838 4 0.033 -4.940804334242509 -1.8201987989197126 2.107827184686281 1 0 1
8920 814 3 0.132 14.800743402445445 0.5724821412319955 -2.4014736569837596 0 0 1
8980 820 10 -0.8 14.947081433238486 -0.9196632391180682 -5.89412857852786 0 0 1
10655 973 7 0.791 14.437823481508751 -5.04281581408744 -5.354538649156986 0 1 1
17 5 4 0.033 3.8577653116534405 3.3053744504145586 1.9805403919322035 0 0 0
613 56 1 -0.1 8.248326473469742 8.376196377540541 4.7621259733215595 0 0 0
8495 775 8 -0.468 8.012884742381122 -5.137225873675508 -5.896720569471823 0 1 1
8867 807 4 0.033 -2.240298215763269 4.174370079130606 0.6973281857337659 0 0 1
9315 848 6 0.034 1.053917900920609 9.535450036473158 -5.018486223971045 0 0 1
6164 564 10 -0.8 -0.16505232520522928 4.94031367010364 2.8598374270811604 0 1 0
9489 864 5 0.068 18.211234152107806 8.39285419359217 -6.040084889958779 0 0 1
75 8 6 0.034 -1.0349248559110993 -3.412939463743947 2.954702154121959 0 0 0
74 8 3 0.132 -0.1844495138854189 -2.8105805626258817 3.2564699731654443 0 0 0
598 56 7 0.791 9.010433732845657 9.418334498317217 3.9046809017101722 0 0 0
8865 807 4 0.033 -2.024868157601769 2.413509313812243 0.35052318710900376 0 0 1
16 5 4 0.033 2.8055212242972822 2.1595851882216492 3.024510922494402 0 0 0
9171 837 4 0.033 -3.8977274779539384 3.270922600100318 -4.094642780489224 1 0 1
8832 806 3 0.132 5.336758385563089 -0.9986857113322631 -2.751493558727654 0 0 1
9411 856 4 0.033 10.30677315243907 7.413588078883664 -5.328186309294567 0 0 1
9181 838 2 -0.131 -5.734139289379131 -1.2151816648461902 -0.9812808674225337 1 0 1
9244 844 10 -0.8 3.9655863552793056 10.051357137073376 4.442318043413179 0 0 1
512 48 5 0.068 -0.4949265736531253 8.530792974342118 5.623737150415726 0 0 0
522 48 4 0.033 1.2757403414192474 9.319028990855161 3.6941966479624995 0 0 0
1855 173 7 0.791 14.641391634761964 -5.452753768943763 5.097711703246992 0 1 0
8847 807 8 -0.468 -2.476980892401276 7.554838583994662 -1.654168045511211 0 0 1
95 13 7 0.791 14.47888899454595 5.213431166676967 4.561801292380263 0 0 0
8814 805 1 -0.1 4.810696407197713 5.171528803374948 -4.767034434040441 0 0 1
1771 165 3 0.132 4.487435790184263 -5.487116705860062 1.562446072276459 0 1 0
514 48 3 0.132 -2.3780161619213835 7.714882814445181 5.252828534953478 0 0 0
8894 813 9 0.275 13.956225984643481 4.5187781182126585 -2.0787036828060668 0 0 1
9356 854 7 0.791 15.265661596302929 9.664961316640639 -0.3083909580699755 0 0 1
528 48 4 0.033 -0.6086663027856034 10.623549310483947 4.526994162308307 0 0 0
10612 967 5 0.068 -1.459442251885328 -3.4215827448162064 -1.943269525992477 0 1 1
519 48 4 0.033 -1.7622417168842126 9.081779532531376 1.502881793693203 0 0 0
9629 878 4 0.033 -4.180653134218914 9.76917497351395 -1.7585749492364426 1 0 1
9180 838 7 0.791 -4.837795204470385 -1.1453036867669821 0.2889903407347143 1 0 1
22 5 1 -0.1 4.9031131320741075 2.615528733180915 4.435567922164722 0 0 0
8934 814 4 0.033 14.831756653077358 1.872285141007633 0.6246055697133306 0 0 1
24 5 4 0.033 5.452596333872331 2.855231622030257 5.356675491053169 0 0 0
264 24 4 0.033 17.32885499377673 1.530902983520679 3.228478587277591 0 0 0
8864 807 1 -0.1 -2.2717377461582857 3.395297480573878 -0.07719832603220578 0 0 1
8866 807 4 0.033 -3.2353870546404537 3.0919911898229 -0.5098312810701398 0 0 1
8952 815 1 -0.1 8.46712457736009 5.141522579312679 0.8753192956753839 0 0 1
8954 815 4 0.033 7.652688260454849 5.81742624488255 0.579286610181116 0 0 1
9361 854 6 0.034 13.508261280085884 8.338017103237998 -2.336491855157497 0 0 1
10616 967 1 -0.1 -1.2726228523385168 -5.692050547769782 -0.518108069511479 0 1 1
8863 807 4 0.033 -2.455697620345992 2.655089031513618 -2.6003684298870735 0 0 1
8830 806 5 0.068 5.126362345931441 -1.8508428866402755 -0.9405379618748642 0 0 1
8849 807 7 0.791 -1.3898385490561564 3.9523866655698616 -1.1396008645405145 0 0 1
8860 807 1 -0.1 -1.4124563833085881 2.8394780165728157 -2.3080933495026423 0 0 1
8861 807 4 0.033 -0.9907713292652465 1.964679237108684 -1.7935957540643699 0 0 1
10706 975 4 0.033 9.132508607339838 -3.645642259902654 -0.24052112643121948 0 1 1
8951 815 4 0.033 8.759258634022759 6.121125780320217 -1.7178244730217198 0 0 1
8918 814 5 0.068 15.403662280074537 -0.9987665023209313 -1.2076253188302584 0 0 1
8937 815 7 0.791 9.213255156999248 4.533614328456998 -0.26442995814232795 0 0 1
8948 815 1 -0.1 9.620756168242563 5.708431180422191 -1.1744106951419173 0 0 1
8949 815 4 0.033 10.314035555209419 5.288460737113967 -1.9165696368012268 0 0 1
1860 173 6 0.034 16.613956819866768 -3.093982921129331 5.585166889276586 0 1 0
1769 165 5 0.068 5.471491882845516 -4.639138888346739 3.29806940634513 0 1 0
92 12 10 -0.8 8.859002737673919 8.816869343776151 -0.7700314274337412 0 0 0
47 7 8 -0.468 -1.2213991782238665 2.9520419536416576 5.556025788515107 0 0 0
168 16 4 0.033 11.149501777495091 0.46762061928921933 5.344456096048772 0 0 0
521 48 1 -0.1 0.6245114814553907 8.759373104745826 3.0082646277471667 0 0 0
9273 846 6 0.034 4.401976947073719 7.176600558238237 -0.28512078469267443 0 0 1
9192 838 4 0.033 -3.827492140675513 -2.940549181990869 -0.1808320346571346 1 0 1
604 56 6 0.034 11.150809685452975 10.304226334014981 2.2058935202843397 0 0 0
8822 805 1 -0.1 2.3236116847439616 5.140450519715036 -4.250680230373314 0 0 1
524 48 4 0.033 0.961777053805263 7.735813162548785 3.223614101626925 0 0 0
12 5 6 0.034 4.863948936347359 5.752929952498985 6.011216948273585 0 0 0
9172 837 4 0.033 -5.063739619803989 4.611412841547569 -4.005561071221741 1 0 1
159 16 2 -0.131 8.775770577477815 -0.9219009090044256 4.621321624676783 0 0 0
161 16 5 0.068 9.350077292784507 -1.5946478753040443 5.241856976982364 0 0 0
8825 805 4 0.033 2.546917239943918 5.555457676533899 -3.2578330781808513 0 0 1
9403 856 6 0.034 7.489652882989293 9.792420292321788 -3.742850920088378 0 0 1
3699 339 10 -0.8 4.386982630258287 -1.6833633243901374 5.486389796933185 0 1 0
8896 813 2 -0.131 14.461146697480512 4.357190039530288 -5.040924302070203 0 0 1
8965 816 1 -0.1 10.525974994219613 -1.6994448017795936 -5.070213373607277 0 0 1
9408 856 4 0.033 6.8427247463648895 7.652579604599192 -5.612687162193675 0 0 1
9366 854 4 0.033 15.327091812426277 8.447031863426966 1.7048700288979273 0 0 1
8823 805 4 0.033 1.319473856032667 4.702668257655133 -4.162233255427313 0 0 1
8936 815 9 0.275 13.384125184407935 4.207287669256186 0.8989920406740435 0 0 1
5 5 8 -0.468 5.3194604542741555 7.184149693818061 4.696136015655934 0 0 0
9274 846 6 0.034 4.388572450629375 8.363850163666612 1.0139235033576703 0 0 1
21 5 4 0.033 2.3393025957978417 2.4907344513525635 5.351597437361372 0 0 0
609 56 1 -0.1 9.957024375616168 10.23734230484578 4.69466847048602 0 0 0
9313 848 5 0.068 -1.1134859663687657 8.140480135130622 -3.7194051967396944 0 0 1
10624 967 1 -0.1 0.25238240401719475 -5.551098731023387 -2.5096711399371694 0 1 1
9182 838 5 0.068 -5.898459874494914 -2.2673610017882964 -1.1640385067197254 1 0 1
8961 816 5 0.068 8.928437103687989 0.07360388497754868 -3.7633307680321426 0 0 1
615 56 4 0.033 9.158943338231047 7.979971395763118 5.232839414936164 0 0 0
10614 967 6 0.034 1.0684042750302871 -2.0757714067605666 -1.8467034061202119 0 1 1
10577 965 4 0.033 4.758513244046135 -4.578818231025337 -4.671863300356241 0 1 1
9 5 5 0.068 3.4754440594656284 5.592372617077794 3.5457649807160756 0 0 0
8815 805 4 0.033 5.552672351515731 4.620786166839759 -5.361976571773635 0 0 1
601 56 5 0.068 10.690231430683012 8.160579046792952 3.5036332311133425 0 0 0
688 64 5 0.068 18.611468038075532 8.778717674099285 5.010412451595277 0 0 0
9051 824 6 0.034 18.39561214296253 -3.370245370669986 -4.360942152884727 0 0 1
9858 898 10 -0.8 14.136158872038708 9.230199687716887 -5.202497429661711 0 0 1
8875 808 6 0.034 -2.558880979171756 0.013711117049486559 -5.969724365582623 0 0 1
9032 823 1 -0.1 18.09697702338919 4.2808957584161895 -0.5653057449108445 0 0 1
8851 807 5 0.068 -2.8751293330806025 5.151295440140864 -2.2124240906830224 0 0 1
8922 814 6 0.034 14.608182278030881 1.6325061765711362 -2.2730403333648592 0 0 1
8939 815 5 0.068 10.90965476822794 3.584918767687954 -0.8654062158506042 0 0 1
23 5 4 0.033 4.605806579638687 1.5579834018533039 4.467216882240358 0 0 0
8840 806 4 0.033 4.828706065008432 -1.1788046909556944 1.3090574981841732 0 0 1
8850 807 2 -0.131 -1.938893130956207 5.314773809733547 -1.6984117858972025 0 0 1
8853 807 3 0.132 -2.218870426774798 6.4170085689822045 -0.7450624516229887 0 0 1
109 13 4 0.033 16.426627255477054 5.490307068575374 5.370790817925078 0 0 0
8855 807 6 0.034 -1.3555854391187232 6.776957697404297 -0.19515547478932493 0 0 1
9170 837 1 -0.1 -4.338689121647435 4.105125434548379 -4.658078367895968 1 0 1
516 48 6 0.034 -2.8421007418322937 7.256329157722516 4.385875196784829 0 0 0
8868 808 8 -0.468 -1.789923506430068 0.36522498695486916 -4.231894859184077 0 0 1
8962 816 3 0.132 7.856183736161468 -0.2437435848103364 -5.6153448583206025 0 0 1
18 5 1 -0.1 2.7563624020185777 3.497225875500881 5.207282412340202 0 0 0
80 8 4 0.033 -3.052163236635057 -2.348567797707205 3.623642328080493 0 0 0
9360 854 3 0.132 13.092352524931782 9.229016552946266 -1.8778235076633605 0 0 1
8928 814 4 0.033 11.878226142590979 0.15943941534762082 -0.6786174863733816 0 0 1
8938 815 2 -0.131 10.466771132532063 3.8128844925970493 0.09344320993571653 0 0 1
8941 815 3 0.132 11.384102656505204 4.594669726165055 0.9826164947237137 0 0 1
8942 815 6 0.034 11.652534415195527 5.477166525375032 0.4113345027460351 0 0 1
8943 815 6 0.034 10.75816544462847 4.85512427281095 1.8297315988257044 0 0 1
8903 813 4 0.033 16.859717372199228 3.3898161878515514 -6.085922899325526 0 0 1
8848 807 9 0.275 -1.9356231722299027 8.285557542031004 -1.3829144062877274 0 0 1
251 24 6 0.034 17.72749923969907 2.502983684042357 4.908545757172309 0 0 0
597 56 9 0.275 10.859570570809332 8.57204183020276 0.2699964786599276 0 0 0
8959 816 2 -0.131 9.095183159198825 0.2920032985495183 -4.808322205913891 0 0 1
106 13 1 -0.1 15.821388967357558 5.922129303214747 4.5614523245874405 0 0 0
8968 816 4 0.033 9.969140929863476 -2.113993884807276 -5.922217165982214 0 0 1
8921 814 6 0.034 13.874950900241334 0.12844238840812197 -2.7521065834891827 0 0 1
82 8 4 0.033 -0.6447604998125354 0.5859945156524157 4.323329021324106 0 0 0
1868 173 4 0.033 12.74053033209004 -5.078546617540879 3.8250438938443967 0 1 0
596 56 8 -0.468 11.337539866601674 8.598361178273988 1.0894322517606936 0 0 0
160 16 5 0.068 8.35846105889635 -0.34355638044907905 5.433032754339614 0 0 0
10791 983 6 0.034 17.626728634446224 -5.336518470880893 1.5147742841865783 0 1 1
9308 848 8 -0.468 1.535196731362097 8.273698864937742 -3.296253790671486 0 0 1
176 16 4 0.033 10.91011359803556 0.505266868905734 2.412039343132255 0 0 0
1864 173 4 0.033 15.853754483703067 -4.2735062516736795 3.686593441615031 0 1 0
511 48 2 -0.131 -0.9821723300597424 8.12280919923551 4.749867034110231 0 0 0
27 6 9 0.275 1.708584596574556 -2.475581156778506 6.257407513734501 0 0 0
14 5 1 -0.1 3.1514386975310176 3.1811109367383352 2.8132851276223736 0 0 0
9402 856 3 0.132 8.119320426528402 10.502838827733505 -4.268240434252082 0 0 1
172 16 4 0.033 9.099723277068211 1.6959712156654076 2.3552412332110038 0 0 0
113 13 4 0.033 13.113334670249083 6.7866020983662185 4.381964314013347 0 0 0
9282 846 4 0.033 5.761428339726524 8.295075199129556 -1.6364173444448902 0 0 1
156 16 8 -0.468 6.9055462877154525 -2.6640408837490246 4.668373045167979 0 0 0
69 8 9 0.275 0.9957742638758144 -4.280973666712963 2.8365306374703536 0 0 0
10929 997 4 0.033 -4.350433014529114 -5.297757511201894 -4.102379810365015 1 1 1
517 48 1 -0.1 -1.689029590906011 8.36434716804864 2.3321841987154386 0 0 0
9317 848 1 -0.1 -1.7607459019263907 10.512108631906653 -5.214426802976101 0 0 1
164 16 6 0.034 8.032016741784396 -2.165350222213086 2.9813306457125943 0 0 0
10662 973 1 -0.1 13.799676866672039 -4.025139661332438 -4.4753756480509015 0 1 1
70 8 7 0.791 -1.5478102704938959 -1.3947170389599095 4.949070753627737 0 0 0
690 64 3 0.132 18.190534250055567 10.153507710119298 3.457248712892884 0 0 0
614 56 4 0.033 7.546076844348085 8.681145700165859 5.550580888420802 0 0 0
513 48 5 0.068 -0.4107451155276239 7.206625912882971 4.710443638661719 0 0 0
9322 848 4 0.033 -3.2154868115090904 8.277476929465616 -4.83697374282855 0 0 1
163 16 6 0.034 7.001166024104156 -1.0037559757699777 3.549471760458413 0 0 0
8833 806 6 0.034 4.2802233354308985 -1.0776257730415055 -2.985372213380034 0 0 1
9279 846 1 -0.1 5.213823886173781 9.183447570699022 -1.9809731211857748 0 0 1
2731 251 10 -0.8 15.27237086814946 5.58851838272918 0.40370037190452557 0 0 0
9320 848 4 0.033 -2.5294445174811213 10.56766012665918 -4.430962092936514 0 0 1
8914 814 8 -0.468 15.848231111756693 0.39897513109056437 -3.269497405844581 0 0 1
9165 837 6 0.034 -5.330540502345679 1.5154181340540784 -4.632377201636395 1 0 1
8808 805 2 -0.131 3.225123594306227 3.8817726522437948 -6.175670204505739 0 0 1
8540 780 10 -0.8 -1.3018210512861417 -3.7001041996033384 -6.063567177753162 1 1 1
83 8 4 0.033 -2.277403162468833 0.5588914872344469 4.561779530502495 0 0 0
169 16 1 -0.1 8.542048936716162 1.007778196434723 3.005763923055218 0 0 0
795 75 10 -0.8 -0.6360989180890013 -0.14385287089358806 0.49550835558151185 1 0 0
9268 846 7 0.791 4.387758323997843 10.018172215330642 -0.9279185074190224 0 0 1
9272 846 3 0.132 3.7683223690390224 7.840190438212226 0.29398351250205224 0 0 1
443 43 10 -0.8 14.82830940028454 9.42131921351182 4.577947299123574 0 0 0
79 8 4 0.033 -2.920752223311304 -3.0839044961218898 5.225515216765363 0 0 0
9280 846 4 0.033 5.745963487924517 9.884884462472481 -2.638700744473913 0 0 1