LAMMPS data file via write_data, version 29 Sep 2021, timestep = 5000000

11000 atoms
10 atom types
10000 bonds
8 bond types
18500 angles
13 angle types
24000 dihedrals
10 dihedral types

0 51.0189 xlo xhi
0 51.0189 ylo yhi
0 51.0189 zlo zhi

Masses

1 12.01
2 12.01
3 12.01
4 1.008
5 1.008
6 1.008
7 14.01
8 16
9 1.008
10 35.45

Bond Coeffs # harmonic

1 340 1.099
2 490 1.498
3 490 1.516
4 340 1.0805
5 317 1.521
6 340 1.085
7 450 1.395
8 553 0.949

Angle Coeffs # harmonic

1 35 110.01
2 35 108.9
3 51.8 110.2
4 35 106.4
5 70 116.6
6 35 108.3
7 80 109.6
8 35 109.3
9 35 111.6
10 35 110.9
11 35 108.73
12 35 108.6
13 35 107.4

Dihedral Coeffs # opls

1 0.1 0.55 0.65 0
2 0 0 0.825 0
3 0 0 0.94 0
4 0 1 0.7 0
5 -6 -5 3.2 0
6 -0.5 -2.5 0.25 0
7 -6 -7 0.75 0
8 6 -3 2 0
9 -0.356 -0.174 0.35 0
10 -3 1 -2 0

Atoms # full

7835 374 9 0.275 9.634655683538782 6.011381718698803 2.811289396313694 -1 -3 -4
4983 238 5 0.068 10.548008272247017 11.301497842970667 1.737110787253929 1 -3 -2
10746 746 10 -0.8 10.64462933801982 4.970090312675186 0.9108787208971929 6 -4 7
10562 562 10 -0.8 6.948800595128521 3.9237587155057616 6.154140663648283 2 0 -8
1027 49 4 0.033 8.514392841275194 1.4235112845503803 11.154118195696025 0 -3 0
7847 374 1 -0.1 4.310100940834952 5.68975614607862 1.1607360215295042 -1 -3 -4
9349 446 2 -0.131 2.442294952264998 0.7623044467033074 3.630468819593947 -3 4 2
9355 446 1 -0.1 1.5251767771866669 1.5095433847005921 5.797167716910544 -3 4 2
9348 446 7 0.791 1.2715625031553746 1.4130241718473637 4.31928555724982 -3 4 2
9358 446 4 0.033 0.6738190357041749 1.9670340167420255 6.320324417530628 -3 4 2
9357 446 4 0.033 1.791010721718764 0.6209706246317919 6.386719380253274 -3 4 2
10141 483 4 0.033 3.3357854136133116 4.673043628818177 12.176921883724116 -1 3 0
7844 374 4 0.033 5.408908654328866 3.924462957597388 2.9251078378636346 -1 -3 -4
10124 483 9 0.275 0.04101790019156937 2.6435475040554564 9.662231541601987 -1 3 0
5580 266 4 0.033 4.793617943167891 24.49640821091374 7.97925427762152 -3 -1 -1
10669 669 10 -0.8 7.744642374710225 22.25544674238613 0.7272472542273518 0 1 -2
10901 901 10 -0.8 14.826175290125699 0.6016597812382609 5.778607492631743 -3 6 -1
3851 184 6 0.034 12.227828891022002 3.1167796828722976 11.623023499396451 0 -2 -1
7455 355 4 0.033 7.800326603832616 1.3273529240830555 3.9330725799844815 0 -1 1
9361 446 4 0.033 0.06364379505929207 0.44295646673292377 2.9496924754230514 -3 4 2
9363 446 1 -0.1 1.0592243749256867 2.749607512351548 3.8143847772021426 -3 4 2
7851 374 1 -0.1 4.849421255795659 7.245110910092706 3.1730075510757456 -1 -3 -4
7437 355 7 0.791 9.82645863418133 1.2496795879949862 4.913210855368041 0 -1 1
3844 184 8 -0.468 10.930504309283274 1.4200548642434097 11.94555811197462 0 -2 -1
3850 184 3 0.132 11.213251567834018 2.7403919527031566 11.544348253090229 0 -2 -1
3849 184 5 0.068 9.704839544323288 2.77236027051355 10.059818723144447 0 -2 -1
8384 400 5 0.068 4.260782929582614 16.088475280919635 1.350718134817457 1 1 1
7449 355 4 0.033 9.884642233048114 2.040444259138051 6.801032646840062 0 -1 1
3896 186 4 0.033 15.727220600438237 15.180109956397018 2.5459533298105446 1 0 -2
6152 293 4 0.033 1.8489818155537925 22.83348412357203 0.9368396690744356 2 1 0
5582 266 4 0.033 6.27813324405154 23.461512315628926 7.418992107438831 -3 -1 -1
7380 352 6 0.034 15.151593382346038 0.7674254008099088 3.460511707846861 4 2 0
7448 355 1 -0.1 10.252255474617415 1.127799584267424 6.311399065277175 0 -1 1
3853 184 1 -0.1 9.873778844826804 5.423778407871379 10.354348621508699 0 -2 -1
7846 374 4 0.033 5.408749941187402 5.136634825226005 4.307991476606534 -1 -3 -4
7841 374 6 0.034 7.694742689787561 6.874907227562944 3.8415591173716233 -1 -3 -4
3852 184 6 0.034 10.576396058116476 3.426727222026578 12.092603130924969 0 -2 -1
7845 374 4 0.033 3.863179987739435 4.683206512140131 3.424003696625868 -1 -3 -4
7843 374 1 -0.1 4.951103720377488 4.824529874907029 3.3588071295801933 -1 -3 -4
3855 184 4 0.033 10.025388939934782 5.175951362927572 11.41425292218182 0 -2 -1
8394 400 4 0.033 1.2842855703196792 18.482756578783555 1.3349199218142678 1 1 1
7836 374 7 0.791 5.111077435966961 5.965106539367957 2.408128222485834 -1 -3 -4
8397 400 1 -0.1 1.827220100465419 15.816125513225455 2.0398381870179896 1 1 1
7842 374 6 0.034 6.966546649967416 5.398480539229184 3.8374999953675664 -1 -3 -4
9305 444 9 0.275 0.6423387133132339 7.098019342327478 5.603349644769689 1 -3 1
7451 355 4 0.033 9.914157833380463 0.25364679755382075 6.88528743827708 0 -1 1
7848 374 4 0.033 3.2691671377735707 5.8940299685328155 1.448016186872886 -1 -3 -4
7005 334 4 0.033 11.725495388555268 21.442449722178747 0.06639512108741354 1 1 -3
10142 483 4 0.033 4.849361570882225 5.265349315969471 11.688584108733489 -1 3 0
7446 355 4 0.033 9.24751271928704 3.345958684852441 5.216366968242948 0 -1 1
1692 81 4 0.033 13.893863009843626 24.670983650531305 11.097142899340287 -2 2 2
10916 916 10 -0.8 6.643822946090627 2.7378673749655977 1.1324169420089805 -1 -4 -1
10140 483 1 -0.1 4.052479021940199 4.589512322603784 11.347962445465832 -1 3 0
8399 400 4 0.033 2.430557736621521 14.920829225395488 2.245335170939408 1 1 1
10605 605 10 -0.8 4.965778116780233 10.92265354112939 1.7072841334600164 -2 0 0
7452 355 1 -0.1 8.279528346322257 1.0777828755254755 4.890089404269027 0 -1 1
9366 446 4 0.033 1.8914473075796892 3.312056663542801 4.260318430998902 -3 4 2
3856 184 4 0.033 8.806863329403845 5.261788047655897 10.146379583787304 0 -2 -1
10137 483 4 0.033 4.009875552946176 5.836260889903387 8.19169763388927 -1 3 0
10136 483 1 -0.1 4.564915611924871 5.681764625740951 9.127572816394649 -1 3 0
10125 483 7 0.791 3.4705123657602415 5.279205372436757 10.10187414211326 -1 3 0
9902 472 4 0.033 11.03252697770996 19.3104712300623 12.587049542950744 1 1 0
10138 483 4 0.033 5.231497110158825 4.8432299506982766 8.88195180405424 -1 3 0
10139 483 4 0.033 5.156449111897084 6.533722505681222 9.490969128076758 -1 3 0
7377 352 5 0.068 16.879328914874403 0.9660026635160222 1.9325341525919175 4 2 0
4981 238 2 -0.131 11.527955563614757 10.97455278155144 2.053796988920104 1 -3 -2
2618 125 1 -0.1 17.00140432924944 1.6975657972816245 8.831213806729835 -5 6 0
9304 444 8 -0.468 0.5030736871097599 7.153073009780665 6.540459733320862 1 -3 1
7852 374 4 0.033 4.826868480268351 8.232169934753266 2.6903001323698352 -1 -3 -4
975 47 6 0.034 9.178077854525911 18.241778402142078 1.2952719072566097 -1 2 0
7834 374 8 -0.468 8.861714385114599 5.460970711005263 2.8257895335257137 -1 -3 -4
7838 374 5 0.068 6.662812754416263 7.062968307004292 1.560320804078561 -1 -3 -4
7840 374 3 0.132 7.562295423234781 6.024250153519083 3.181206885137202 -1 -3 -4
7837 374 2 -0.131 6.529291168781361 6.10036343569107 2.0325962172487744 -1 -3 -4
10133 483 4 0.033 3.5126493516950132 7.254833982905306 11.055950331193966 -1 3 0
1022 49 1 -0.1 7.584455663316583 0.5996633618237485 8.4847906896457 0 -3 0
7839 374 5 0.068 6.5691121117214015 5.268604640316279 1.3440675101748776 -1 -3 -4
4474 214 8 -0.468 0.22568726589104202 13.956936244699287 9.819734363209198 0 0 -2
1028 49 4 0.033 9.713970705427984 0.5592405874747253 10.512584359976806 0 -3 0
7375 352 2 -0.131 15.847256879897516 1.0698130347272088 1.6299945468523396 4 2 0
8020 382 4 0.033 11.755265222553382 24.293975384778168 4.73136975720584 -2 2 1
9351 446 5 0.068 2.3483786072168806 1.064890471402385 2.5974626966199215 -3 4 2
8022 382 4 0.033 13.339902460668807 24.076132253033368 3.8509567844590293 -2 2 1
9364 446 4 0.033 0.11242142532512528 3.010453387552315 4.30766414583401 -3 4 2
1018 49 1 -0.1 6.378898413747113 0.10126487557688997 10.360936201832041 0 -3 0
9356 446 4 0.033 2.3701197313225393 2.1213561025448713 6.14293782651985 -3 4 2
8007 382 5 0.068 9.69636961328142 23.704897150321923 1.7673776842367277 -2 2 1
10860 860 10 -0.8 11.217161631312766 12.321833027511685 11.671998252252166 3 3 0
9365 446 4 0.033 1.187080120986252 2.6402164980921605 2.7283433848526153 -3 4 2
7378 352 3 0.132 15.050746127727072 1.5480616273017684 2.713744137494032 4 2 0
7440 355 5 0.068 11.636011622188498 0.5705833292437075 4.169101328046531 0 -1 1
7445 355 4 0.033 11.102158927004494 2.9351019275124393 5.146068910265932 0 -1 1
3848 184 5 0.068 11.247887043785752 2.548830577106506 9.295245698836908 0 -2 -1
3847 184 2 -0.131 10.740244458896626 3.0800154087682796 10.087471427183699 0 -2 -1
7372 352 8 -0.468 15.271002495667043 2.937161120946149 3.0701931801554116 4 2 0
1178 57 9 0.275 16.256510374493384 3.2872735348568565 0.3164218517893759 0 0 0
3863 184 4 0.033 12.539234744880874 4.9313909157616 10.690487225811566 0 -2 -1
3094 148 3 0.132 4.654975429662759 20.909562946840552 11.611768069882 1 3 -3
7127 340 6 0.034 0.33885048049197214 1.9137542772378289 12.109819644620394 0 0 -1
657 32 5 0.068 1.1083424176977035 19.558858115252455 10.749346808331923 2 2 0
7138 340 4 0.033 4.26625799398075 1.5887727875811284 12.695603774806951 0 0 -1
9864 470 4 0.033 14.630879323120263 18.61474343555727 4.706549303797429 -1 0 0
9925 473 4 0.033 16.992698588732885 12.476800397597604 12.439504615282203 2 2 -1
7376 352 5 0.068 15.850150320871817 1.7327575288022707 0.7767796652932786 4 2 0
2624 125 4 0.033 15.67277635672376 3.592864994138744 8.792103869356017 -5 6 0
9862 470 4 0.033 16.651942898085192 19.16584004430192 2.300258351504422 -1 0 0
4998 238 4 0.033 11.403485127832743 7.828301539125556 2.212637687187182 1 -3 -2
3864 184 4 0.033 12.531293330164354 5.868661180203084 9.197224299539663 0 -2 -1
3862 184 4 0.033 13.068641517177234 4.178023860407466 9.10122267347225 0 -2 -1
3859 184 4 0.033 11.039377420271292 3.8670553792059756 7.6254775219366895 0 -2 -1
3861 184 1 -0.1 12.371817790018358 4.861289814011607 9.606578433127066 0 -2 -1
7444 355 1 -0.1 10.077082363409394 2.766644150413741 4.787403783780368 0 -1 1
9853 470 2 -0.131 16.186119595351038 21.702687420123084 4.407057733433333 -1 0 0
3854 184 4 0.033 10.078339947584274 6.5011718177029625 10.28238634081914 0 -2 -1
3860 184 4 0.033 10.69075509410639 5.478079612365425 7.693268742468548 0 -2 -1
3846 184 7 0.791 10.91181457656786 4.535565081254757 9.695687304356305 0 -2 -1
8006 382 5 0.068 9.585814274266376 23.788080901702816 3.4577657751539372 -2 2 1
3857 184 1 -0.1 10.419473932821466 4.552545362762243 8.220140425673023 0 -2 -1
3858 184 4 0.033 9.36463237224186 4.249208322297082 8.164493515544809 0 -2 -1
8382 400 7 0.791 2.2004860240136437 16.449047605898095 0.868541046862328 1 1 1
315 15 4 0.033 13.791530133032415 5.207269314709803 12.273162782185722 0 0 -2
7447 355 4 0.033 10.125260307418168 2.938037088608746 3.7029203907764328 0 -1 1
2607 125 7 0.791 16.551339579785363 2.3442837399439873 10.175429474131086 -5 6 0
10914 914 10 -0.8 6.641752244401955 7.3802959243838915 7.389254893557079 8 0 2
7849 374 4 0.033 4.512753673611125 4.621969020986782 0.9977536760219887 -1 -3 -4
1685 81 5 0.068 11.646025446554226 24.506636731113428 11.48373372375068 -2 2 2
10800 800 10 -0.8 14.95988926803782 6.298229239730671 1.8542044774433486 -3 2 4
6364 304 8 -0.468 9.581166140456192 9.483714677335863 8.819464906676574 -1 2 -1
6365 304 9 0.275 8.960029257867145 9.333167065360207 9.5209811728523 -1 2 -1
974 47 6 0.034 10.042803235562943 19.49941101037917 0.35715441938812864 -1 2 0
8392 400 4 0.033 2.4274100278153465 14.478412584705904 0.3135984851370329 1 1 1
9350 446 5 0.068 3.30985191167546 1.2888357684621394 4.001399945134729 -3 4 2
1160 56 5 0.068 12.412061082432803 19.82667656306797 11.055807706247252 -1 0 -2
1025 49 4 0.033 7.875099474957791 1.6537810132341162 8.595076198282454 0 -3 0
3355 160 4 0.033 12.856251900218878 14.501316488390922 9.406088977459065 -1 2 -3
7438 355 2 -0.131 10.610236901768868 0.32636866348418725 3.933252208831678 0 -1 1
658 32 3 0.132 1.1720218940069382 21.032914065256122 9.195169792369361 2 2 0
8393 400 1 -0.1 1.2605781330295902 17.672862321618986 0.59241754492958 1 1 1
4989 238 4 0.033 10.780949610153394 10.009590152606307 4.635308538724466 1 -3 -2
4987 238 1 -0.1 10.505009872035803 9.464652387741273 3.7216887688145595 1 -3 -2
8017 382 4 0.033 11.04011244658984 22.015086299283844 3.958885393324141 -2 2 1
1175 56 4 0.033 14.007807619783458 18.136639580042004 11.547684957465915 -1 0 -2
8019 382 1 -0.1 12.281241137780869 24.35943340891869 3.7686312191127285 -2 2 1
10717 717 10 -0.8 14.287984402522868 4.940322675945517 5.425787278774257 -4 2 3
7850 374 4 0.033 4.644303288111249 6.161633124126575 0.22615491985739358 -1 -3 -4
10697 697 10 -0.8 2.100830885153246 6.377585237229285 4.485513079753904 -1 -3 -3
3378 161 1 -0.1 0.11946191174133244 9.223955055982884 0.38213315097016404 0 1 -1
2623 125 4 0.033 14.349891088096506 2.6962002819811257 9.757632534031048 -5 6 0
3890 186 5 0.068 15.12741754321179 14.34232265575996 6.367657199684074 1 0 -2
7853 374 4 0.033 5.772941916207268 7.2145936813666145 3.767968976063199 -1 -3 -4
7373 352 9 0.275 15.26295662831366 2.9581802093226925 4.018926191982454 4 2 0
4990 238 4 0.033 10.41186382843615 8.462949043159806 4.164085750400347 1 -3 -2
9865 470 4 0.033 13.92022722083309 19.947433656338337 3.4959810688232125 -1 0 0
7450 355 4 0.033 11.33352741233145 1.322452187361226 6.339001661951726 0 -1 1
659 32 6 0.034 0.44800187106802614 21.35853080897211 8.455579621089624 2 2 0
5954 284 4 0.033 14.93262757040179 24.466037166921975 1.2172268821011492 -2 0 0
4996 238 4 0.033 12.265103395737198 8.71501163021201 0.7857720737449798 1 -3 -2
10131 483 6 0.034 0.6952407103398884 5.175579177950829 10.241847990031085 -1 3 0
314 15 4 0.033 15.08588222626322 6.4897239482736016 12.07170480150045 0 0 -2
3366 161 5 0.068 0.5349844432426346 7.837066176298204 2.394670124006579 0 1 -1
9851 470 9 0.275 16.57882373424764 24.49848116511832 3.329146740792181 -1 0 0
2101 101 8 -0.468 0.8331630320303813 24.708918983167187 10.135795453942137 0 -1 -6
1020 49 4 0.033 6.040421443788059 1.109073922027295 10.08244898396663 0 -3 0
655 32 2 -0.131 0.6689658626098738 19.66621719233248 9.768070878282982 2 2 0
2622 125 1 -0.1 15.379261857071263 3.0791427800321967 9.718246081432019 -5 6 0
3379 161 4 0.033 1.1360419442465697 8.893012126467179 0.6367751099634963 0 1 -1
309 15 4 0.033 12.459205344717683 7.599384919709052 12.250629034469235 0 0 -2
3895 186 1 -0.1 16.23693010068451 14.801348114015797 3.442913017510619 1 0 -2
3897 186 4 0.033 15.764133483263235 13.81008000213808 3.4835519914746227 1 0 -2
3092 148 5 0.068 6.41594719640721 21.961252672146284 11.290229159469616 1 3 -3
10127 483 5 0.068 3.140105511188385 3.573394621116997 9.210911044153557 -1 3 0
10129 483 3 0.132 1.1599275830180487 4.19661385098229 10.187831328685277 -1 3 0
10123 483 8 -0.468 0.43902437037235126 3.4387868843679152 9.330892474017283 -1 3 0
1693 81 4 0.033 14.511465002564467 25.22230911242386 12.68565397218906 -2 2 2
10126 483 2 -0.131 2.490828545198689 4.39896560914427 9.464588059541173 -1 3 0
652 32 8 -0.468 2.454037080906359 21.0026912501299 8.55199462342894 2 2 0
9859 470 1 -0.1 16.32306391894142 20.187949723642227 2.5346317103058347 -1 0 0
2619 125 4 0.033 16.17032013474336 1.0899871325647617 8.446573748844324 -5 6 0
4995 238 1 -0.1 11.43965004289714 8.672645059757231 1.51008735506838 1 -3 -2
8004 382 7 0.791 11.582057598348795 23.751169083788454 2.7470422721181498 -2 2 1
9858 470 6 0.034 14.58199249444111 22.516432292791684 3.2638976789505256 -1 0 0
1167 56 4 0.033 15.938255837716891 19.82281411764964 10.398091604146678 -1 0 -2
8143 388 4 0.033 3.158308360153211 13.08028674981869 10.412937330028615 -3 0 -2
8130 388 7 0.791 3.5623432365358902 12.396400144313471 12.320437242041143 -3 0 -2
1024 49 4 0.033 8.295211169188939 0.02777316036578724 7.871953685680294 0 -3 0
1168 56 4 0.033 14.410211170602096 20.213510026487118 11.377915534007773 -1 0 -2
264 13 4 0.033 4.754387769133694 12.771929331255725 4.986443134021456 4 0 1
258 13 5 0.068 1.4102437770872975 12.322921668949881 6.716565648557845 4 0 1
10135 483 4 0.033 2.9495549863461132 7.203179507501901 9.354041563374407 -1 3 0
4988 238 4 0.033 9.580124432366848 9.737363773009125 3.1944164818247422 1 -3 -2
10132 483 1 -0.1 2.8991630426948354 6.702008422806407 10.330816434526525 -1 3 0
254 13 9 0.275 1.852039637956927 15.330498388328357 7.737894936594507 4 0 1
253 13 8 -0.468 2.516135185383357 14.670869729753917 7.894317185367114 4 0 1
257 13 5 0.068 2.8539229341698777 11.752955992818492 7.519387182074582 4 0 1
265 13 4 0.033 4.904024673461374 11.183956508958172 4.294659230359856 4 0 1
266 13 1 -0.1 2.25600087390234 12.203345450299988 4.314988758630885 4 0 1
256 13 2 -0.131 2.4902233055823366 12.336486324215146 6.685903425705441 4 0 1
263 13 4 0.033 4.85633063734299 11.355111621687373 6.066024393881653 4 0 1
260 13 6 0.034 4.0416312132404 13.731512501429885 6.64271286624276 4 0 1
3845 184 9 0.275 11.441158404927304 0.9409954228404507 12.586132143640008 0 -2 -1
8131 388 2 -0.131 4.825548516171051 13.202974088329364 12.051375087071143 -3 0 -2
8135 388 6 0.034 5.991102122438458 11.588910387832076 11.354793403270158 -3 0 -2
10128 483 5 0.068 2.2671729281264934 4.615690472994491 8.429944371133466 -1 3 0
8133 388 5 0.068 4.6169345879993795 14.209598420925554 11.718707232878549 -3 0 -2
269 13 4 0.033 2.653357739471277 11.7957969727047 3.3748759545082585 4 0 1
272 13 4 0.033 2.8071145379224567 9.704778031620538 4.734778282319313 4 0 1
262 13 1 -0.1 4.432751523217764 11.73006332962602 5.123796746711108 4 0 1
273 13 4 0.033 1.453881500371821 9.969411998854953 5.688097122125684 4 0 1
259 13 3 0.132 2.9643245771995868 13.771282095710184 6.765405530052712 4 0 1
261 13 6 0.034 2.3795010908336804 14.237009674837664 5.979082663539574 4 0 1
271 13 4 0.033 3.0931001387596404 9.995011990435128 6.528302243093255 4 0 1
270 13 1 -0.1 2.5118138874034805 10.262207558118114 5.634706522828754 4 0 1
255 13 7 0.791 2.9768157243874187 11.62816913025087 5.474313003240606 4 0 1
267 13 4 0.033 2.4422917903595636 13.283236831377522 4.39824306645857 4 0 1
268 13 4 0.033 1.254165194036648 11.782492966799285 4.479334294899608 4 0 1
9359 446 1 -0.1 0.11040612907570524 0.5116172321239687 4.045548153362494 -3 4 2
8136 388 6 0.034 5.2498234338568 12.54895251679369 10.227517582919328 -3 0 -2
8138 388 4 0.033 4.285047771686889 10.361090537221685 12.29741265207566 -3 0 -2
8134 388 3 0.132 5.834698124783178 12.64021737638352 11.136812100645495 -3 0 -2
10134 483 4 0.033 1.864208950437324 6.743852551861396 10.698130933745011 -1 3 0
7442 355 6 0.034 9.159597937915146 0.3876407634358087 2.3128594579245427 0 -1 1
10641 641 10 -0.8 8.518563316969601 18.720985239167785 8.28348924839919 -4 -4 6
8128 388 8 -0.468 6.973980545696892 13.417216148484203 11.113369931075058 -3 0 -2
3347 160 6 0.034 9.560223996065284 16.400210195173933 9.562745114928804 -1 2 -3
8144 388 4 0.033 1.8009550397738572 12.009462146861548 10.928239339717154 -3 0 -2
6153 293 4 0.033 2.1693759272965467 21.09938853756711 1.0876640470163392 2 1 0
8146 388 4 0.033 2.7016521943864675 14.368723108087911 12.572989624293937 -3 0 -2
8141 388 1 -0.1 2.884561735773518 12.183401742171833 10.986052263057802 -3 0 -2
8129 388 9 0.275 6.847523338262355 13.811859994281201 10.259633935340542 -3 0 -2
8142 388 4 0.033 3.4610816790229744 11.389580078164217 10.49080204664155 -3 0 -2
3178 152 3 0.132 6.745687650136742 13.465972129179006 2.104291130051421 5 0 -1
3172 152 8 -0.468 6.411114943143225 13.62449682316534 0.7615224480938321 5 0 -1
3180 152 6 0.034 5.8397668577546655 13.323059599010005 2.684039482212857 5 0 -1
3173 152 9 0.275 6.707401313216101 12.897713072579792 0.22804275412777628 5 0 -1
7453 355 4 0.033 7.848689824219872 1.8017560420762995 5.59581005135095 0 -1 1
8398 400 4 0.033 1.872731297209734 16.481972938894128 2.9129800373957537 1 1 1
3674 175 4 0.033 7.385719255977477 18.855828875699594 3.5602900467782463 1 1 -1
3672 175 1 -0.1 6.594233307896417 19.563615716020234 3.2767610311817283 1 1 -1
3673 175 4 0.033 5.850973717127761 19.053686702579093 2.6480018081191963 1 1 -1
3675 175 4 0.033 7.091705536523702 20.46800944138119 2.899409358207138 1 1 -1
7139 340 4 0.033 2.816556366316604 2.5781890377363323 12.203695650835854 0 0 -1
1170 56 4 0.033 15.34586875159971 18.899036628568783 8.223960879482426 -1 0 -2
4978 238 8 -0.468 12.59167196870642 12.533026493057765 0.5769307062907901 1 -3 -2
1026 49 1 -0.1 8.68390904415363 0.3806747531523423 10.851534737159177 0 -3 0
653 32 9 0.275 3.19288969996371 21.517826047482036 8.85088238450673 2 2 0
3905 186 4 0.033 14.176179398734188 16.63153032220985 3.7048552785988105 1 0 -2
3089 148 9 0.275 3.5168138382719025 21.956790414153662 10.371319032126696 1 3 -3
3904 186 4 0.033 14.178040986851524 14.912888040489374 4.233837673951447 1 0 -2
3899 186 1 -0.1 16.89300060538888 16.651213542912217 4.84271214813269 1 0 -2
4993 238 4 0.033 13.764279727950234 9.466250207351726 2.447720151070204 1 -3 -2
9852 470 7 0.791 15.92421647674666 20.329817738978775 3.9266269401384424 -1 0 0
4994 238 4 0.033 12.859918061373577 8.615466355623157 3.8250789399009926 1 -3 -2
7379 352 6 0.034 14.047840121468468 1.48597752362824 2.3044155602863783 4 2 0
3903 186 1 -0.1 14.453586756172593 15.939662502419662 4.512422038478752 1 0 -2
4985 238 6 0.034 13.45113705857735 10.754507398516713 1.4443815400690543 1 -3 -2
3901 186 4 0.033 16.847218051942978 17.286877659990292 5.738053430419044 1 0 -2
3181 152 1 -0.1 9.321000433449822 15.525176431882969 4.103086555473028 5 0 -1
3174 152 7 0.791 8.066999360731279 14.737268854846095 4.037837379582915 5 0 -1
3189 152 1 -0.1 6.953564613037599 15.271747246060652 4.913150911628567 5 0 -1
3190 152 4 0.033 6.0352006760957515 14.668918026048376 4.881445076608693 5 0 -1
3191 152 4 0.033 6.8552734987297494 16.184242262000556 4.308591013556897 5 0 -1
3177 152 5 0.068 6.964871942705967 15.622403205013901 2.3470908514487157 5 0 -1
3182 152 4 0.033 9.891010076020322 15.130049718073495 4.955591606840603 5 0 -1
3183 152 4 0.033 9.1296935117911 16.599516237723105 3.9727178636631475 5 0 -1
3184 152 4 0.033 9.936213155959125 15.343336568866365 3.2107591029090754 5 0 -1
3342 160 7 0.791 11.147652107213759 14.86182465342141 8.213377840034521 -1 2 -3
3192 152 4 0.033 7.255850954545321 15.412179169637671 5.9603867059996425 5 0 -1
3359 160 4 0.033 10.938791893442467 16.926583778454184 7.9774778592115325 -1 2 -3
3350 160 4 0.033 11.478841809144658 12.62982265503821 7.581998190350837 -1 2 -3
4982 238 5 0.068 11.86510195885081 11.701685397657823 2.7784283965596983 1 -3 -2
3175 152 2 -0.131 7.494228140606044 14.721091262328503 2.6207676585431314 5 0 -1
4980 238 7 0.791 11.548700269912096 9.608335731378235 2.6552487744908095 1 -3 -2
7137 340 1 -0.1 3.1916057479924205 1.5789596955501666 12.465763442821446 0 0 -1
6376 304 4 0.033 14.888822004357671 8.12101240554679 8.508693032889626 -1 2 -1
6374 304 4 0.033 13.249237652983233 7.229856885506146 8.5040499039585 -1 2 -1
8013 382 4 0.033 11.766524056482185 25.069008590542058 1.1145521681805808 -2 2 1
6382 304 4 0.033 13.370624782418904 7.985126139795561 5.8587706172464875 -1 2 -1
3188 152 4 0.033 7.579433039060677 12.584944886031378 4.164397830444219 5 0 -1
3187 152 4 0.033 9.183124574539448 13.04558081999704 3.693423591910611 5 0 -1
3176 152 5 0.068 8.322211619288954 14.524360321177134 1.9550195492443965 5 0 -1
3179 152 6 0.034 7.399753340843355 12.627477876178427 2.3195823897272057 5 0 -1
3891 186 5 0.068 16.01081234032653 15.777902190484665 6.836615670087409 1 0 -2
6384 304 4 0.033 13.229694214747193 9.654633835744974 5.556898497367663 -1 2 -1
6369 304 5 0.068 11.499046829921884 9.925524258654526 6.900677381098636 -1 2 -1
6366 304 7 0.791 13.220639131318118 9.270789597935035 7.632645295480749 -1 2 -1
6377 304 1 -0.1 13.935236866197366 10.441026180474594 8.253738681443815 -1 2 -1
6378 304 4 0.033 13.509136358424534 11.387770824578945 7.893304246344135 -1 2 -1
6381 304 1 -0.1 13.750785057122544 8.950660256042449 6.2207406732726085 -1 2 -1
6379 304 4 0.033 15.019214631313071 10.328654991990247 8.111733613054565 -1 2 -1
6383 304 4 0.033 14.833479867044323 9.104252904208352 6.111277368897889 -1 2 -1
6373 304 1 -0.1 13.795160205955785 8.178822909722296 8.600138144258766 -1 2 -1
6370 304 3 0.132 10.937582677927827 9.455799121965898 9.008787005762423 -1 2 -1
6375 304 4 0.033 13.54702683508696 8.530355240423921 9.611402381655957 -1 2 -1
6367 304 2 -0.131 11.69059724194413 9.19690494377138 7.67521056671179 -1 2 -1
6380 304 4 0.033 13.773795749317648 10.452726987406141 9.34075268308763 -1 2 -1
972 47 5 0.068 11.247502848347697 17.39003381712617 2.069745542469959 -1 2 0
6371 304 6 0.034 11.021554343768539 8.656042979204857 9.73718495245216 -1 2 -1
6368 304 5 0.068 11.341216177414202 8.224795132758441 7.358326430166628 -1 2 -1
10519 519 10 -0.8 5.64259024715657 10.851411189783217 9.017598331167239 -1 1 -2
4992 238 4 0.033 13.267021611680134 10.272182776683126 3.8158643447387735 1 -3 -2
6372 304 6 0.034 11.457193705319309 10.233450901613134 9.558775185419393 -1 2 -1
3906 186 4 0.033 13.916535041875537 16.24602106559408 5.421003834431447 1 0 -2
3343 160 2 -0.131 9.552819738242404 14.80437453933083 8.202314705276349 -1 2 -3
978 47 4 0.033 12.005218275220527 15.351340118014592 1.220704602130401 -1 2 0
976 47 1 -0.1 12.269897607591947 15.891254852745048 0.30079298334027327 -1 2 0
3185 152 1 -0.1 8.366664201414668 13.322299470868664 4.375053654937817 5 0 -1
310 15 4 0.033 13.726934244119585 8.643246164079702 12.536824182399195 0 0 -2
3344 160 5 0.068 9.284169345062699 13.90797719827284 8.742479994389335 -1 2 -3
3346 160 3 0.132 8.948826181574406 16.087253251132275 8.722819445758592 -1 2 -3
3340 160 8 -0.468 7.607314749789156 16.02628806865068 9.074370107143261 -1 2 -3
5955 284 4 0.033 16.513341614246652 24.92528183888465 1.811590536685072 -2 0 0
985 47 4 0.033 9.704274360540847 16.233566323109176 0.8868577685978826 -1 2 0
3345 160 5 0.068 9.124367562435806 14.64211905705896 7.223753584845225 -1 2 -3
3088 148 8 -0.468 3.925539024502551 22.08452203861247 11.218212937075496 1 3 -3
3348 160 6 0.034 9.19781362049742 16.8899684679627 8.036613716826285 -1 2 -3
9850 470 8 -0.468 15.97675846334562 24.07908470184947 3.930997729520947 -1 0 0
3186 152 4 0.033 8.672239475884494 13.163153694007265 5.418651924788191 5 0 -1
3341 160 9 0.275 7.107535620389156 16.70401617080802 8.636755674424776 -1 2 -3
10573 573 10 -0.8 14.714045887442763 13.569499389794165 12.26837585784025 9 -1 2
4991 238 1 -0.1 12.914488407546422 9.476674296034783 3.1445321833739937 1 -3 -2
7441 355 3 0.132 10.238487172815248 0.31641121811903317 2.4031296847010766 0 -1 1
3354 160 4 0.033 11.449814560437188 15.11534480560775 10.40522899612392 -1 2 -3
9863 470 1 -0.1 14.625848132833934 19.625243098670545 4.274500875248816 -1 0 0
3888 186 7 0.791 15.896893657762757 15.516300273227106 4.758865288790001 1 0 -2
656 32 5 0.068 1.0593720304718897 18.88940472067739 9.126490776552204 2 2 0
3356 160 4 0.033 11.409855412307955 13.499419980716834 9.738482861208116 -1 2 -3
2102 101 9 0.275 0.32122242079905344 24.16927964706272 9.546467940151057 0 -1 -6
10534 534 10 -0.8 13.292367000871895 25.476168740969012 7.7084757552163765 1 -5 3
6138 293 5 0.068 3.956933876261013 22.1121844518531 1.6320288191590824 2 1 0
3108 148 4 0.033 8.690498239823995 21.384149046659815 11.624996485130835 1 3 -3
6140 293 6 0.034 3.995339598509802 24.847089107649374 0.41443928920531736 2 1 0
10999 999 10 -0.8 1.0780451958629182 18.374932245179306 4.886266084997924 3 1 1
2615 125 4 0.033 15.576368478417555 2.165818793696645 12.191382753373595 -5 6 0
3100 148 4 0.033 8.065530814397723 18.69973376563726 10.918556405976789 1 3 -3
6136 293 2 -0.131 4.1735738170110865 22.763777147991465 0.7977783349695322 2 1 0
10130 483 6 0.034 1.353941771710376 3.7495726787674686 11.157231873356022 -1 3 0
6133 293 8 -0.468 4.682376605880377 24.535301033660122 2.38179339977596 2 1 0
6137 293 5 0.068 5.227618579539302 22.58169067330498 0.6450881855746191 2 1 0
3097 148 1 -0.1 7.331634404780553 19.51415654336173 10.995446414614351 1 3 -3
2609 125 5 0.068 16.93361183945019 4.056116320401637 11.43301941128728 -5 6 0
9857 470 6 0.034 16.04166925141791 22.622959539899703 2.4340469331547725 -1 0 0
660 32 6 0.034 1.0982189301554317 21.792406181408868 9.966499661179439 2 2 0
5573 266 6 0.034 6.7885256865868415 25.12072914275694 12.178888538721521 -3 -1 -1
967 47 8 -0.468 9.984262803619679 19.562914619076984 2.398514616393893 -1 2 0
6141 293 6 0.034 2.802612492670907 24.08627506146409 1.6009586481804023 2 1 0
6134 293 9 0.275 4.120475062787492 24.82326985045439 3.0902717327406966 2 1 0
8385 400 5 0.068 3.552788941827262 17.637349202289133 1.710744034998077 1 1 1
8011 382 1 -0.1 12.07636951380765 24.04174631664448 1.3523104240932873 -2 2 1
10564 564 10 -0.8 16.47264660847302 23.877960854793102 8.361104851423972 -3 0 -3
8012 382 4 0.033 13.1625933921363 23.913529715845193 1.245169961389177 -2 2 1
3090 148 7 0.791 7.124749291372056 20.226285700868317 12.277081648579653 1 3 -3
3099 148 4 0.033 6.31587735178425 19.094651044881598 10.988139739203492 1 3 -3
6145 293 4 0.033 3.5333158893742884 20.048957599450425 0.3284335903722351 2 1 0
5569 266 2 -0.131 5.494139290769763 25.1484604375873 10.296823217953435 -3 -1 -1
3656 175 9 0.275 7.565090150478224 21.2935284619288 8.298295603069315 1 1 -1
5581 266 4 0.033 5.0714618245763425 22.990102163799598 8.684498583241368 -3 -1 -1
5567 266 9 0.275 4.357685248915205 25.50116702241601 11.823453520441644 -3 -1 -1
8395 400 4 0.033 0.3191528389369847 17.141854084645516 0.791287341573289 1 1 1
3665 175 4 0.033 5.336694847184016 21.85713003913547 3.5825215782405753 1 1 -1
5568 266 7 0.791 6.288183835810157 24.752735772129448 9.095474133501636 -3 -1 -1
3105 148 1 -0.1 8.421716120424747 20.878619828896177 12.56307817460884 1 3 -3
3668 175 1 -0.1 5.115315865200224 18.969057143728445 5.421923991554146 1 1 -1
3670 175 4 0.033 5.872670868674367 18.277018644750108 5.81600130745258 1 1 -1
3671 175 4 0.033 4.225085493562147 18.56251408943744 4.9219105864111485 1 1 -1
3660 175 5 0.068 7.78808284698672 19.88611325373317 5.294276900867169 1 1 -1
3666 175 4 0.033 4.506809595241877 21.309441929957316 5.081150272727698 1 1 -1
3658 175 2 -0.131 6.97886982911861 20.599320308867217 5.357444978587212 1 1 -1