LAMMPS data file via write_data, version 29 Sep 2021, timestep = 1000000

11000 atoms
10 atom types
10000 bonds
8 bond types
18500 angles
13 angle types
24000 dihedrals
10 dihedral types

0 49.73967 xlo xhi
0 49.74841 ylo yhi
0 49.75219 zlo zhi
3.04621155345851e-15 3.04644301170355e-15 3.04644301170355e-15 xy xz yz

Masses

1 12.01
2 12.01
3 12.01
4 1.008
5 1.008
6 1.008
7 14.01
8 16
9 1.008
10 35.45

Pair Coeffs # lj/cut/coul/long

1 0.066 3.5
2 0.066 3.5
3 0.066 3.5
4 0.03 2.5
5 0.03 2.6
6 0.03 2.2
7 0.17 3.25
8 0.17 3.07
9 0 0
10 0.148 3.77

Bond Coeffs # harmonic

1 340 1.099
2 490 1.498
3 490 1.516
4 340 1.0805
5 317 1.521
6 340 1.085
7 450 1.395
8 553 0.949

Angle Coeffs # harmonic

1 35 110.01
2 35 108.9
3 51.8 110.2
4 35 106.4
5 70 116.6
6 35 108.3
7 80 109.6
8 35 109.3
9 35 111.6
10 35 110.9
11 35 108.73
12 35 108.6
13 35 107.4

Dihedral Coeffs # opls

1 0.1 0.55 0.65 0
2 0 0 0.825 0
3 0 0 0.94 0
4 0 1 0.7 0
5 -6 -5 3.2 0
6 -0.5 -2.5 0.25 0
7 -6 -7 0.75 0
8 6 -3 2 0
9 -0.356 -0.174 0.35 0
10 -3 1 -2 0

Atoms # full

377 37 4 0.033 1.8218628519323774 11.70255192953092 11.702381946834242 1 0 0
10714 975 4 0.033 14.707324820477274 0.8672668692037864 7.480183059487136 0 1 1
812 77 4 0.033 1.336331102965974 22.422288982821442 8.28238943416212 1 0 0
9187 838 1 -0.1 1.319245218995258 4.744723271166691 4.0252103458561646 1 0 1
10706 975 4 0.033 13.647783150454648 0.662461192927021 5.242218257228645 0 1 1
1766 165 9 0.275 10.452223183492263 1.9584647802142867 6.841911049515772 0 1 0
793 73 10 -0.8 1.4036398147314078 16.86552194803926 0.4675805763601602 1 0 0
10575 965 4 0.033 8.529542553823097 0.8991202117706596 1.175580646303114 0 1 1
9320 848 4 0.033 3.5096721192235516 15.312573847386659 0.8695098262631757 0 0 1
9614 877 1 -0.1 2.3872061318274955 22.811333449181852 2.046029119330149 1 0 1
2126 197 1 -0.1 2.2803003793646774 0.9310197103517726 8.984285457645496 1 1 0
8960 816 5 0.068 15.985911959543378 3.962010777396579 1.0403923973701115 0 0 1
10713 975 4 0.033 16.3396874934083 1.7644933762306514 7.2874901917009955 0 1 1
8964 816 6 0.034 13.497783244680583 5.577126386832444 1.0225937268768235 0 0 1
8827 806 9 0.275 13.438445790659987 6.007481704952198 4.954373374474143 0 0 1
2135 197 4 0.033 0.16038710111581989 2.2580658371570363 9.323740770831614 1 1 0
9610 877 1 -0.1 0.12032633205444511 21.813841754882514 1.7137646040791135 1 0 1
453 45 6 0.034 11.495363502571001 16.929826652787874 9.831714471393278 0 0 0
9947 907 10 -0.8 1.3631438011843173 11.202481578035242 3.17099974986347 1 0 1
8941 815 3 0.132 14.0520111879729 13.120056075673801 5.378143869017314 0 0 1
8854 807 6 0.034 3.8717676481223298 9.168259828620991 4.075616867252992 0 0 1
8871 808 2 -0.131 5.020399656582877 4.016500616839333 0.6088006810668378 0 0 1
9281 846 4 0.033 8.975858303685994 18.118655739318353 2.2704692677003395 0 0 1
9262 845 1 -0.1 9.968000202349975 20.93457560613684 0.8975738913742941 0 0 1
515 48 6 0.034 5.601299066389798 15.981091028507201 8.065994612940226 0 0 0
9191 838 1 -0.1 1.5773750481784843 6.885147553953239 3.256201632447612 1 0 1
9393 855 4 0.033 14.996958487683592 18.433173530979616 3.8800220482054235 0 0 1
9179 838 9 0.275 1.2151377971987256 5.594760041035281 8.549858877140878 1 0 1
361 37 5 0.068 0.16062238603979598 10.111594287349961 11.974202691224942 1 0 0
6953 633 10 -0.8 0.25777006833253213 5.198434914269349 10.554043932164099 1 0 1
9189 838 4 0.033 2.3563122317006395 4.741939629394542 4.388921159612429 1 0 1
9620 878 7 0.791 1.5461277805650522 15.068606477699023 4.86655234121748 1 0 1
10935 997 4 0.033 1.1840825015033385 1.9319640759502896 0.48532545973082036 1 1 1
1763 163 10 -0.8 10.584751026464566 0.8427007109451594 4.641476132916761 0 1 0
10576 965 4 0.033 9.421443256687992 2.0792917732886775 2.3835361675991185 0 1 1
8852 807 5 0.068 6.299069801117076 9.742426463557734 5.613967285515184 0 0 1
9270 846 5 0.068 9.329189480598957 15.6788188165988 2.402019222850648 0 0 1
21 5 4 0.033 10.494661000095183 10.483974125359028 11.818644991202056 0 0 0
1781 165 4 0.033 8.243080974293115 0.34581335514510475 10.44331891882652 0 1 0
2132 197 4 0.033 2.5497489778459372 0.31942890311141764 11.592255601206093 1 1 0
9247 845 7 0.791 11.18640662851422 21.57612217299347 0.23717910604106815 0 0 1
9183 838 5 0.068 1.9549592805569431 6.621949744200403 5.682924153961192 1 0 1
8845 806 4 0.033 8.428987319630476 5.873185624812085 3.2220656472513425 0 0 1
8856 807 1 -0.1 7.0358645873914725 9.815177127593634 3.01429546174821 0 0 1
8857 807 4 0.033 7.7979036018344505 9.543424049296414 3.758101804463355 0 0 1
8859 807 4 0.033 6.621653476384259 8.854518501388684 2.677597890500748 0 0 1
8858 807 4 0.033 7.4828260626331 10.329062750480308 2.1517710725606514 0 0 1
803 77 3 0.132 1.1565177307756678 18.62052565846121 10.120115489037506 1 0 0
9284 846 4 0.033 11.17540572764177 17.185320964382875 2.7872142002475226 0 0 1
8939 815 5 0.068 13.442852116433134 11.272711441201512 4.501024667507884 0 0 1
10613 967 3 0.132 3.6139853354764444 0.687750777223628 4.313379319538462 0 1 1
452 45 6 0.034 10.037263915140176 17.118904795590236 8.83308349122215 0 0 0
9317 848 1 -0.1 4.398945440601831 14.669456637665942 0.8112481368097892 0 0 1
9288 847 9 0.275 7.8031369855078045 22.238448190439833 9.32968772253654 0 0 1
8938 815 2 -0.131 14.405207509040292 11.701194389882962 4.741346954974125 0 0 1
9607 877 4 0.033 1.3679721901092736 19.533116933342455 1.6014817037169913 1 0 1
10615 967 6 0.034 3.941725882465796 1.6053331470828418 3.8360390055931273 0 1 1
9386 855 4 0.033 13.949131927365494 20.94903597996599 6.4759008342216955 0 0 1
9635 878 1 -0.1 2.6163077371656716 14.807881539963871 3.738431200903363 1 0 1
1045 96 1 -0.1 15.14988005936207 24.096298342824387 11.491888085158667 0 0 0
376 37 4 0.033 2.837751514696571 10.39084942317445 11.348777157234403 1 0 0
520 48 4 0.033 5.653459183257267 17.01946713990861 12.183229860993729 0 0 0
9725 886 4 0.033 9.58952290414526 23.799042516155804 5.374807994759457 0 0 1
510 48 7 0.791 5.58947702089018 15.257497424435844 10.948330608549249 0 0 0
10607 967 8 -0.468 2.5158330783617013 0.19118535696496416 3.5714529046023444 0 1 1
9287 847 8 -0.468 7.725076355252284 22.709085405453585 8.509316902314161 0 0 1
456 45 4 0.033 9.24752215373725 19.88658388928686 8.018753961465334 0 0 0
9283 846 1 -0.1 10.871652073435335 17.267344760781345 3.840213160914288 0 0 1
10 5 5 0.068 10.077915822288459 12.586319676340151 10.19054930627828 0 0 0
9637 878 4 0.033 3.6852663619107173 14.678693069878603 3.9585203318516564 1 0 1
8862 807 4 0.033 7.759698712531391 12.108629947637805 3.4784082698709304 0 0 1
72 8 5 0.068 6.3641795262406315 3.727509241711325 9.81995718115159 0 0 0
956 88 6 0.034 3.191336341696269 24.31873012739437 9.29881936053992 0 0 0
74 8 3 0.132 7.371150607903136 4.521352869381113 11.596642775913747 0 0 0
9265 845 4 0.033 9.582117618486958 21.77866672158119 1.4861365704821177 0 0 1
9188 838 4 0.033 0.8206569644191486 4.0163613340562465 4.6799622824276135 1 0 1
1768 165 2 -0.131 11.006410798307499 0.7654270311477406 9.696299794732182 0 1 0
9250 845 5 0.068 11.564934047429784 22.496661888276833 1.8578600772763112 0 0 1
9385 855 4 0.033 14.093824242397499 19.42138334018035 7.452871890628876 0 0 1
1773 165 6 0.034 9.370231064381812 2.1293727237128115 9.081814596684193 0 1 0
2128 197 4 0.033 3.0230651112036644 1.5797327940629315 9.4693353707324 1 1 0
360 37 2 -0.131 0.47464208436774397 9.403767762959598 11.22064189114696 1 0 0
2129 197 4 0.033 2.097314578058807 1.3246171493017205 7.974632635220923 1 1 0
611 56 4 0.033 15.526659050423175 17.576532230222206 11.349113137069097 0 0 0
10715 975 4 0.033 14.777886376386622 2.554979718433715 7.16359811739981 0 1 1
10122 922 10 -0.8 5.346005157002432 0.9633913130310748 10.197797326991648 0 1 1
10036 916 10 -0.8 5.259420773471034 21.057851979601825 1.0099544488399912 1 0 1
9387 855 4 0.033 15.477285357771537 20.685066280420596 7.286712363551041 0 0 1
9395 855 4 0.033 14.00102978121669 18.090571435149545 5.427261082566828 0 0 1
963 88 4 0.033 3.5273677009783273 24.10464569596437 11.315473102572259 0 0 0
8869 808 9 0.275 5.763314660309972 1.813513690537935 0.6905957899090369 0 0 1
168 16 4 0.033 14.393159149901347 4.799146907801731 8.91660700126858 0 0 0
22 5 1 -0.1 11.739291986233363 9.94227130974779 8.625428029536682 0 0 0
8940 815 5 0.068 14.773354736813626 11.941301883116346 3.7542824698776665 0 0 1
16 5 4 0.033 9.205226435648036 10.714126027887371 8.223065562987916 0 0 0
9271 846 5 0.068 8.304178315953504 15.087490513467316 3.5477213441469937 0 0 1
8870 808 7 0.791 4.717049451449839 5.5104375825872 0.5833304165710685 0 0 1
369 37 4 0.033 0.6158259810817355 11.729136924447822 8.687195893177789 1 0 0
374 37 1 -0.1 2.1161657846065474 11.060575740332224 10.86032854413602 1 0 0
8877 808 1 -0.1 4.699934315069857 6.201836444860107 1.9426926651826955 0 0 1
9625 878 6 0.034 3.677941322901911 13.998933612691387 6.217592487839483 1 0 1
8888 808 4 0.033 6.710695438464446 6.329562398926971 0.49054653076094884 0 0 1
165 16 1 -0.1 13.682788253366663 5.283272175598421 9.601294685849084 0 0 0
10608 967 9 0.275 1.6275550083058452 0.3847037538170983 3.843691362941764 0 1 1
8815 805 4 0.033 9.144425924171975 9.563115802333689 0.4916695316513001 0 0 1
599 56 2 -0.131 14.92891831024379 14.77145310154901 10.991897018075594 0 0 0
10937 997 4 0.033 2.2384841196096716 0.49083179892748696 0.6704926944566799 1 1 1
82 8 4 0.033 6.471421783154276 6.8519964077916 8.090486368725088 0 0 0
8844 806 4 0.033 7.456793089797776 6.54311114516225 4.5622296820965165 0 0 1
516 48 6 0.034 6.897830393634946 16.721908977683096 8.978239531554008 0 0 0
8831 806 5 0.068 11.228320173693042 5.261748892597972 5.619225002900901 0 0 1
8843 806 1 -0.1 8.45101505479445 6.541917306244808 4.093910728690147 0 0 1
8846 806 4 0.033 8.925829397960749 7.482784811002123 3.782268765230296 0 0 1
8959 816 2 -0.131 15.271484688595484 4.62774428373407 0.5779271624565328 0 0 1
9192 838 4 0.033 1.6206062909002497 6.453110376923543 2.246609639493766 1 0 1
9269 846 2 -0.131 9.298334020777393 15.503098591707655 3.467688388199807 0 0 1
13 5 6 0.034 9.769080766227253 12.41499524848104 7.744821973505118 0 0 0
9628 878 4 0.033 2.8821489330028482 16.428517290696753 6.028021330428757 1 0 1
8873 808 5 0.068 4.401235168245146 3.629565635767753 1.405291074514251 0 0 1
9396 856 8 -0.468 12.96295022084752 16.678681965074116 1.1405332579445049 0 0 1
8874 808 3 0.132 6.545834960425564 3.6922598722042563 0.7578290805203276 0 0 1
8955 815 4 0.033 15.80743542887036 8.6594467720676 5.475154886341053 0 0 1
9609 877 4 0.033 3.0973053135165127 20.039593725053653 1.9736264779846286 1 0 1
9266 846 8 -0.468 10.004183482704239 13.214847726707815 3.3775240093956107 0 0 1
9722 886 4 0.033 12.326584805341424 24.676889956583388 4.735253269599123 0 0 1
445 45 8 -0.468 9.58256052137555 16.08725941658638 10.455545563329078 0 0 0
8842 806 4 0.033 7.587133002364471 4.932686775628001 5.985489023005795 0 0 1
9723 886 1 -0.1 9.828552647462661 24.401512468310525 6.262330625004718 0 0 1
8962 816 3 0.132 14.331619400027865 5.1887267740681 1.5979962538422192 0 0 1
813 77 4 0.033 2.2174712478179965 20.98256157488686 8.877454904741532 1 0 0
4 4 10 -0.8 1.2620722053989306 14.545458236708377 10.144200629347631 0 0 0
514 48 3 0.132 6.556124111131821 15.788227772891394 8.543841928450632 0 0 0
9638 878 4 0.033 2.6002255681328657 15.53719108466005 2.9164519076777125 1 0 1
9315 848 6 0.034 4.982612208097769 17.60974686429728 0.7982918570866037 0 0 1
9390 855 4 0.033 16.27183326200798 18.168727768391587 6.780726286559267 0 0 1
8867 807 4 0.033 4.815763217478305 10.194229106048684 2.3541976401530365 0 0 1
10698 975 2 -0.131 16.27383254722719 0.010762906016643148 5.527789809941368 0 1 1
161 16 5 0.068 15.656397077404876 6.013496930136193 12.15952053905053 0 0 0
10707 975 4 0.033 14.425454073255247 1.1283105828852842 3.7108083329979107 0 1 1
9606 877 1 -0.1 2.027917948876122 20.26798340795292 2.083399052101417 1 0 1
9608 877 4 0.033 1.8617268057332195 20.342370505079007 3.1672112243276267 1 0 1
8865 807 4 0.033 5.4707251294981125 11.524258295833999 1.9201247193355215 0 0 1
8936 815 9 0.275 14.198873298504667 14.487044781258591 4.040217747095372 0 0 1
371 37 4 0.033 1.6099421559009286 10.00733444840768 7.95990429742416 1 0 0
8832 806 3 0.132 11.647789457835918 6.851823104483904 4.6284895206758305 0 0 1
9190 838 4 0.033 1.1154487847631975 4.375738685608126 3.010262743062434 1 0 1
9627 878 1 -0.1 1.9111062872989388 16.390229033810925 5.5147853012497015 1 0 1
455 45 4 0.033 10.925622570333408 20.361279312229545 7.731911435557201 0 0 0
518 48 4 0.033 5.914962508880515 17.400542571741855 10.518180538071759 0 0 0
9384 855 1 -0.1 14.624119388344388 20.159669130678388 6.835196011435749 0 0 1
8847 807 8 -0.468 3.9442915141809007 8.79169714551032 6.223054610643927 0 0 1
17 5 4 0.033 8.859991159670747 10.552225406519266 10.114837459260944 0 0 0
517 48 1 -0.1 6.16912642402731 16.65440290595174 11.283998817516377 0 0 0
10704 975 1 -0.1 14.201793046895883 1.4635935682583003 4.733237938316397 0 1 1
8963 816 6 0.034 14.845047240766078 6.028669105261509 2.0541915212081103 0 0 1
18 5 1 -0.1 11.178767654906858 10.156217468935717 11.023424893046434 0 0 0
454 45 1 -0.1 10.291587384109791 19.588075257431463 8.187933922098917 0 0 0
9618 878 8 -0.468 2.719505571614553 12.720439259608423 7.806377065286611 1 0 1
8848 807 9 0.275 4.135734240540101 7.9259726862508275 6.561393045022572 0 0 1
612 56 4 0.033 14.579441302970912 17.3243546415049 9.87325620938354 0 0 0
14 5 1 -0.1 9.421794325525711 10.281592849019868 9.20988616400055 0 0 0
8864 807 1 -0.1 5.0306241488218975 11.148835539297822 2.8545603381983846 0 0 1
8866 807 4 0.033 4.234709519059438 11.727151646034018 3.3443271818133113 0 0 1
805 77 6 0.034 2.166818832931608 18.736691488266743 9.74193180417974 1 0 0
169 16 1 -0.1 15.091841256627287 7.218097053181608 9.629147143173892 0 0 0
9290 847 2 -0.131 6.058229281668164 22.20590217398103 6.935066208420452 0 0 1
8863 807 4 0.033 7.413200890270708 11.426827011773037 5.077187430887192 0 0 1
8830 806 5 0.068 10.590698794761403 5.021719488951883 3.9844268680559454 0 0 1
8849 807 7 0.791 6.162998777691824 10.80191757004107 3.7718566469304724 0 0 1
8860 807 1 -0.1 6.959126498056656 11.923162283820197 4.208125259813169 0 0 1
8861 807 4 0.033 6.552398215806355 12.908499272877929 4.4754908255935755 0 0 1
9401 856 5 0.068 15.5055364600542 16.731703949473562 1.53234210049504 0 0 1
73 8 5 0.068 5.372497359736547 4.093688540373639 11.196845856871803 0 0 0
9249 845 5 0.068 12.368449979769043 20.89391152965394 1.8854278325574327 0 0 1
804 77 6 0.034 0.6311678024294665 18.26036696994451 9.241754337131308 1 0 0
8819 805 4 0.033 11.571557382009786 9.468176538342696 1.5663807060879968 0 0 1
1259 118 9 0.275 0.28725890924957687 24.76578364798975 12.164590473598775 1 0 0
372 37 4 0.033 1.3475725032315962 8.516930749786217 8.974976782669781 1 0 0
1769 165 5 0.068 11.75564237913522 0.17200585206966457 9.19232994717868 0 1 0
458 45 1 -0.1 12.279260108627874 19.615655939352344 9.802071794730304 0 0 0
9273 846 6 0.034 11.102054611586324 14.855684395408225 3.517389547229488 0 0 1
9402 856 3 0.132 14.005364522853698 16.191411435202127 0.3564385179212965 0 0 1
10078 918 4 0.033 1.1472920629889762 24.293246726482288 5.117533689195947 1 0 1
9248 845 2 -0.131 12.205656558795404 21.805755884861508 1.3290837220595495 0 0 1
9181 838 2 -0.131 0.8752149763447183 6.581546501594406 5.682472361682847 1 0 1
808 77 4 0.033 0.7155554157539531 19.838585073514704 8.062166574476656 1 0 0
159 16 2 -0.131 15.372463955522619 5.436597884194793 11.29116013342088 0 0 0
528 48 4 0.033 3.60016212474222 15.649251453020316 11.774917530787421 0 0 0
10705 975 4 0.033 13.702395511723225 2.3974155322098265 5.027142438274651 0 1 1
167 16 4 0.033 13.174833871036338 4.478067125093602 10.150319842044336 0 0 0
8450 770 10 -0.8 14.913244830297641 10.865313088215649 10.648463370348262 0 1 1
9380 855 5 0.068 16.448450898779317 20.39504041486689 4.047786697101085 0 0 1
9633 878 4 0.033 0.08173299757412969 14.13760984991896 3.613886261348765 1 0 1
512 48 5 0.068 5.897376646178312 13.75806316388515 9.35413597391456 0 0 0
9275 846 1 -0.1 9.152188003087856 16.996320370807727 5.465866849729232 0 0 1
9274 846 6 0.034 10.195629887260656 14.305885705695545 5.0305602675037075 0 0 1
84 8 4 0.033 7.77073431368507 6.489646074410046 9.225305554565075 0 0 0
603 56 6 0.034 13.329940702234849 15.577140491716904 10.085787284049337 0 0 0
2119 197 7 0.791 1.1335350856277713 0.5909244276716635 9.833709856935597 1 1 0
23 5 4 0.033 11.61403837699933 8.874307986809844 8.852512028983085 0 0 0
88 8 4 0.033 5.474551221601778 7.909520661362529 10.138069786400859 0 0 0
173 16 1 -0.1 13.476217196464532 6.81885420156445 11.541047109319363 0 0 0
464 45 4 0.033 10.63030857468551 21.61205679753561 9.842692456813065 0 0 0
10034 914 10 -0.8 16.381297667945315 20.546467727272304 1.1305221282488471 1 0 1
9622 878 5 0.068 1.413416397938045 12.974416889676082 5.264708153247229 1 0 1
166 16 4 0.033 13.014916930140414 5.830950035553208 8.921737431924404 0 0 0
9324 848 4 0.033 6.9962382763869675 14.95480643959021 0.5155207072360495 0 0 1
1046 96 4 0.033 14.412795025048876 23.337935046685757 11.192902808814697 0 0 0
8851 807 5 0.068 4.8741518304210745 10.76594330912085 5.545175694249503 0 0 1
462 45 1 -0.1 10.161775907791496 20.828303460637883 10.454255155287568 0 0 0
8840 806 4 0.033 8.940305343197332 4.72119424140332 6.83513953161838 0 0 1
8850 807 2 -0.131 5.527650097120894 10.130773484194744 4.964676229008741 0 0 1
8853 807 3 0.132 4.523226895971121 8.916653506247442 4.905990604422881 0 0 1
8855 807 6 0.034 5.0376894575707905 7.9920117716395485 4.666009169638398 0 0 1
373 37 4 0.033 2.793414226541286 9.392399265449422 9.027967910760038 1 0 0
9162 837 5 0.068 1.687857924913104 9.994226057325637 0.529893935275476 1 0 1
9616 877 4 0.033 2.2393786342688826 23.78331940364664 1.5549162654901476 1 0 1
7 5 7 0.791 10.863729732816708 10.732845521973218 9.626742460496237 0 0 0
9615 877 4 0.033 2.1942749812590705 22.829279397516657 3.127813128128589 1 0 1
9251 845 3 0.132 13.518171423483148 22.451368073368016 1.0064542901759292 0 0 1
10622 967 4 0.033 5.9182059607201065 2.1041565072616675 4.253655802588261 0 1 1
1771 165 3 0.132 10.016065741591058 1.3680484132192705 8.656951857934905 0 1 0
602 56 3 0.132 13.576623940552713 14.53809233235776 10.277494505169487 0 0 0
8817 805 4 0.033 9.123546638423049 11.353327150758565 0.8754879229572311 0 0 1
450 45 5 0.068 10.413118347484444 18.603619214104157 11.422540330219695 0 0 0
448 45 2 -0.131 10.085386199321196 18.513182509869967 10.39692163027323 0 0 0
370 37 1 -0.1 1.7088182513377415 9.554697787457883 8.9564708603695 1 0 0
9612 877 4 0.033 0.031898692297736064 22.03109437642765 2.7874421651425747 1 0 1
613 56 1 -0.1 16.25282122995848 15.20587596313857 8.855980188238911 0 0 0
9847 896 4 0.033 15.938065921004641 24.28977820833887 2.531676376955903 0 0 1
810 77 1 -0.1 1.4705247287054979 21.745505393061695 9.137817545204602 1 0 0
8954 815 4 0.033 14.3890570849307 9.06469774326416 4.545785444949474 0 0 1
9282 846 4 0.033 8.42896581560609 18.8159564801467 3.823571068731392 0 0 1
9757 888 1 -0.1 6.564822615140343 24.68608686521354 1.9652195419767684 0 0 1
9323 848 4 0.033 6.334315061803327 13.419778933380405 0.29019450867322916 0 0 1
9720 886 4 0.033 12.635536501737 24.378060412480963 6.495003519965679 0 0 1
8946 815 4 0.033 15.013518044315779 9.829462675722072 7.537655591677091 0 0 1
2134 197 1 -0.1 0.6337640478529097 1.9610925433471844 10.27006141283807 1 1 0
9161 837 5 0.068 0.9890941946785441 8.540778547602791 0.13004345398824596 1 0 1
362 37 5 0.068 1.1519717778835752 8.897544227950345 11.893280524597168 1 0 0
9379 855 5 0.068 15.010740270234372 21.407747578077515 4.411525361936193 0 0 1
9617 877 4 0.033 3.482452340394595 22.808664639795676 1.9553071695337743 1 0 1
11 5 3 0.132 10.728563671507494 12.780302246749134 8.095775698756965 0 0 0
799 77 7 0.791 0.2879254627516103 21.01405884166124 9.616503132711166 1 0 0
8833 806 6 0.034 11.134587534649516 7.435924883990207 3.8717369357680784 0 0 1
9279 846 1 -0.1 8.506192467864295 17.88960933107398 3.237295795879382 0 0 1
9382 855 6 0.034 16.323657346126772 22.359530127689997 6.335360376366355 0 0 1
9318 848 4 0.033 4.937461988835225 15.085566434472709 1.6741812913228151 0 0 1
9244 844 10 -0.8 12.984802235710445 16.68568742089896 7.480549414741002 0 0 1
8879 808 4 0.033 4.404044577534297 7.259735145008994 1.9758693410738442 0 0 1
8937 815 7 0.791 15.163912401856605 10.726443956452862 5.585701433072649 0 0 1
8868 808 8 -0.468 6.600294648741606 2.260717249792548 0.6819611270431679 0 0 1
795 75 10 -0.8 5.068450391306492 5.534196981226489 5.8935538785681265 1 0 0
9268 846 7 0.791 9.441197127624699 16.928042838355697 3.9781326212712744 0 0 1
9272 846 3 0.132 10.189828979026755 14.466682529380671 3.9575569743018835 0 0 1
359 37 7 0.791 1.0855150517397565 10.246282339514794 10.12872533675802 1 0 0
9280 846 4 0.033 7.506807337258237 17.64078302187975 2.853738468446796 0 0 1
511 48 2 -0.131 6.3016729214075715 14.710554894502446 9.665238318009871 0 0 0
7482 682 10 -0.8 10.548391223491812 21.221360650433045 4.904061942758908 0 0 1
9299 847 4 0.033 6.288694585153588 22.350688351797526 4.089029545388414 0 0 1
8878 808 4 0.033 3.9325108593266505 5.647762211991412 2.5011409533574858 0 0 1
8835 806 1 -0.1 9.223906470842886 6.977647093243136 6.500037055095713 0 0 1
8836 806 4 0.033 9.730510712806183 6.560407342147218 7.381549740442617 0 0 1
8837 806 4 0.033 8.181268566819167 7.2936606969324504 6.644407137945774 0 0 1
8838 806 4 0.033 9.841114647040113 7.842530685991661 6.21926753929976 0 0 1
601 56 5 0.068 15.540941654236198 13.902163025409171 11.18488133760724 0 0 0
9626 878 6 0.034 2.805469954751138 14.690024973053141 7.5134359899108 1 0 1
9184 838 3 0.132 0.32064494708045943 5.725594039248149 6.8075609924333795 1 0 1
92 12 10 -0.8 10.062186981126699 10.333228932318441 5.282344946503683 0 0 0
27 6 9 0.275 9.180449069589182 7.225640096801723 11.767818427703325 0 0 0
9267 846 9 0.275 10.309846284484069 12.57083048317233 4.0039534309043985 0 0 1
8828 806 7 0.791 9.25722957690684 6.061628395995649 5.275187019432147 0 0 1
8829 806 2 -0.131 10.712277301109594 5.72851340551522 4.7925987792600875 0 0 1
8834 806 6 0.034 11.731360478605563 7.518191259838182 5.480660381166982 0 0 1
8839 806 1 -0.1 8.657177490311078 4.795393633332708 5.775831120068412 0 0 1
8841 806 4 0.033 9.034386318184668 3.900717509375669 5.260982397643512 0 0 1
9760 888 4 0.033 5.955090774400545 23.843894215051154 1.6092141513227523 0 0 1
8942 815 6 0.034 13.590161575726809 13.080802549263492 6.359153125972433 0 0 1
8944 815 1 -0.1 14.36269160612337 10.32861691333741 6.806169438857158 0 0 1
1765 165 8 -0.468 10.636326067906214 2.1933070829241785 7.742775918277863 0 1 0
9624 878 3 0.132 2.785990270249662 13.856770785435184 6.818789719058314 1 0 1
6 5 9 0.275 10.961293476128866 14.613233943788565 7.508358794292212 0 0 0
881 81 10 -0.8 14.537396475492839 6.0322053549629695 6.556942857561646 0 0 0
8818 805 1 -0.1 11.602372022835437 10.518195943338702 1.243408599392162 0 0 1
451 45 3 0.132 10.422854134523886 17.09328338521695 9.846932077436504 0 0 0
10620 967 1 -0.1 6.689593714190423 1.3386726032529648 4.089957538037766 0 1 1
19 5 4 0.033 12.200344747790073 10.408843642552513 11.34022410236586 0 0 0
6164 564 10 -0.8 5.258584557615571 11.238781852486927 9.89915860254939 0 1 0
461 45 4 0.033 12.59773318907408 20.536848171574956 9.294350313413162 0 0 0
8 5 2 -0.131 10.841629203843873 12.193007424707904 9.535165727474975 0 0 0
9621 878 2 -0.131 1.6239452805608738 13.89494677251032 5.789858644280355 1 0 1
8814 805 1 -0.1 9.334947651843718 10.58075264214482 0.12299915511389167 0 0 1
9 5 5 0.068 11.84497873158794 12.524177229176438 9.761211675637622 0 0 0
447 45 7 0.791 10.724881851975072 19.638705433185162 9.667678157951512 0 0 0
8812 805 6 0.034 9.729611581068742 13.271275339272945 0.2063663300187994 0 0 1
9263 845 4 0.033 9.806389461479498 19.938759651980224 1.3335035491758263 0 0 1
7395 675 10 -0.8 15.964813840073314 0.5255554757191511 0.714639036471324 1 0 1
8880 808 4 0.033 5.725677064053219 6.116637607808682 2.3279125138876076 0 0 1
610 56 4 0.033 16.294490034809613 17.534903372690923 9.734757157599672 0 0 0
9636 878 4 0.033 2.384632803176102 13.859828733946939 3.2331355537263846 1 0 1
526 48 4 0.033 3.7548954332456166 14.578160617285846 10.304267959409085 0 0 0
527 48 4 0.033 3.8869258527627144 16.37050193841043 10.22626266823006 0 0 0
800 77 2 -0.131 0.5898414852613737 19.951082011542695 10.642620005141419 1 0 0
8935 815 8 -0.468 13.491050693342599 13.975623453630547 4.411750833393701 0 0 1
519 48 4 0.033 7.259731531186164 16.531776901848 11.341829970537228 0 0 0
83 8 4 0.033 7.032590340500554 5.068132152357584 8.414094320707807 0 0 0
3699 339 10 -0.8 10.311202218111868 6.1257106742255205 10.140393012542303 0 1 0
811 77 4 0.033 1.7283854734795296 22.333853002498895 10.029532708186045 1 0 0
8826 806 8 -0.468 12.900291406023374 6.356769446605604 4.255095480135898 0 0 1
8966 816 4 0.033 15.882650110921627 7.485206690366148 0.4210872929674405 0 0 1
596 56 8 -0.468 12.80581388187507 13.997846409376722 11.212749329067359 0 0 0
10075 918 1 -0.1 0.44338346438396203 24.82197193293562 5.775381678089166 1 0 1
609 56 1 -0.1 15.526443617432804 17.074171441169856 10.37164965366536 0 0 0
12 5 6 0.034 11.416601035858418 12.507253235364479 7.302507804412026 0 0 0
9596 876 10 -0.8 0.3582218569481615 21.276875742719486 5.386727643297109 1 0 1
10712 975 1 -0.1 15.306255851416102 1.6166762640000027 6.944021760510471 0 1 1
614 56 4 0.033 15.213518670869751 15.289925671996084 8.508723628963235 0 0 0
8811 805 3 0.132 10.790870811517927 13.37779066179852 0.007347410387230104 0 0 1
9394 855 4 0.033 13.879583954068227 19.570952356348926 4.217004562042186 0 0 1
267 27 10 -0.8 4.431612293435463 20.279141457991063 10.109712238893282 1 0 0
10574 965 1 -0.1 9.45588144465988 1.2917086018797872 1.6178156902844179 0 1 1
170 16 4 0.033 14.449189145319325 7.70609467000685 8.883051425288995 0 0 0
10585 965 4 0.033 12.471632183516482 2.0283586342544013 0.10842196704343303 0 1 1
9392 855 1 -0.1 14.475686329195737 18.82696613005421 4.763766373299464 0 0 1
9246 845 9 0.275 14.814715218343569 22.007046557308854 2.3018254293110276 0 0 1
8956 816 8 -0.468 14.217930760045103 4.317217386146983 2.659339872398947 0 0 1
9182 838 5 0.068 0.7667444872806879 7.656563916471204 5.689686142956194 1 0 1
9301 847 4 0.033 4.215715319150637 23.07782568325481 5.340542020605023 0 0 1
176 16 4 0.033 14.052867855414426 7.580537550793073 12.084290702868357 0 0 0
8883 808 4 0.033 3.1681315713910254 6.635154749118917 0.10687779236129538 0 0 1
9298 847 4 0.033 6.906418727075321 20.753472575694282 4.492238449165418 0 0 1
8943 815 6 0.034 14.951670040671672 13.616995777774266 5.725836427442129 0 0 1
171 16 4 0.033 15.769586761167579 6.733582257462364 8.912412716909422 0 0 0
8890 810 10 -0.8 9.910811631155491 5.867231447613074 0.9550257359199424 0 0 1
9297 847 4 0.033 5.246489313292194 20.93721529968375 3.8855908162938935 0 0 1
9397 856 9 0.275 12.2279259287305 16.685313714138747 0.5402856147324417 0 0 1
9286 846 4 0.033 10.820051444337437 18.335511508299405 4.093508682691235 0 0 1
8362 762 10 -0.8 0.008703924051250086 1.052402703769654 5.73886645747241 0 1 0
9292 847 5 0.068 5.912493145682503 23.23289200360258 6.632521657409505 0 0 1
10567 965 7 0.791 10.452812464941056 1.308642019368291 0.5788798256884538 0 1 1
8876 808 6 0.034 7.020455963948552 4.2749866650097 1.5403822877174786 0 0 1
446 45 9 0.275 10.167074757675582 15.533682105336242 10.95803576741703 0 0 0
10621 967 4 0.033 7.5411042393385115 1.512098219965666 4.762753758236535 0 1 1
9193 838 4 0.033 2.5319914545211955 7.227123860000146 3.6799477141991788 1 0 1
8804 804 10 -0.8 5.9048224059844925 16.20462534289437 4.959191333574878 0 0 1
80 8 4 0.033 3.626502475682907 5.228588722960332 9.978259340046106 0 0 0
10697 975 7 0.791 15.581090172021803 1.3442349116407595 5.4945447245935375 0 1 1
9294 847 6 0.034 7.340446525938969 20.82086175973286 7.842684312203884 0 0 1
9278 846 4 0.033 9.344070336846933 15.968383220172402 5.80399027999454 0 0 1
9293 847 3 0.132 7.453773623815765 21.831600780563242 7.464809815584912 0 0 1
459 45 4 0.033 12.408432812334354 18.769010272889236 9.11337220686655 0 0 0
71 8 2 -0.131 6.191692592384694 4.460203656927267 10.595126470408822 0 0 0
5 5 8 -0.468 10.566494141757863 14.131554737356888 8.224403680445173 0 0 0
2136 197 4 0.033 1.526250424571206 2.558883911059627 10.502256732982227 1 1 0
1779 165 4 0.033 9.257106160956882 1.2175941198017475 11.661396229187206 0 1 0
10584 965 4 0.033 11.586417725095767 3.10680152610947 1.0755163719447014 0 1 1
457 45 4 0.033 10.587589908713502 18.858479727963623 7.4212045937268485 0 0 0
9759 888 4 0.033 7.639173315443347 24.466056438312954 1.8933962108871103 0 0 1
465 45 4 0.033 10.499772425962263 20.978921097925415 11.489085472415436 0 0 0
9180 838 7 0.791 0.6763598959464802 6.102634429455116 4.168509349087473 1 0 1
9306 847 4 0.033 6.111957294423497 19.552247688841977 6.402495313517039 0 0 1
8947 815 4 0.033 13.527625830147574 9.844194492191988 6.281001394302514 0 0 1
9252 845 6 0.034 13.904440190921857 21.81137674308136 0.22004935294920672 0 0 1
9285 846 4 0.033 11.592713388169756 16.609970077876305 4.345910885647431 0 0 1
76 8 6 0.034 7.371302685901721 5.278005010487926 12.374269105477262 0 0 0
9245 845 8 -0.468 14.16243225492697 22.69022737151455 2.2102157874156436 0 0 1
9302 847 4 0.033 3.423014458124826 22.312226470767403 6.64883769657337 0 0 1
1778 165 1 -0.1 9.0294368842911 0.24441679373910866 11.204347419920646 0 1 0
2122 197 5 0.068 0.028005412229047413 0.38321435193134695 8.276714106738016 1 1 0
77 8 1 -0.1 4.43800587562896 5.326320536436096 9.243607945790307 0 0 0
1048 96 4 0.033 15.772973619334785 23.992222260983322 10.592597367255449 0 0 0
9630 878 4 0.033 1.9646689158071688 17.152976920881656 4.725388163183403 1 0 1