LAMMPS data file via write_data, version 29 Sep 2021, timestep = 1000000

11000 atoms
10 atom types
10000 bonds
8 bond types
18500 angles
13 angle types
24000 dihedrals
10 dihedral types

0 49.73967 xlo xhi
0 49.74841 ylo yhi
0 49.75219 zlo zhi
3.04621155345851e-15 3.04644301170355e-15 3.04644301170355e-15 xy xz yz

Masses

1 12.01
2 12.01
3 12.01
4 1.008
5 1.008
6 1.008
7 14.01
8 16
9 1.008
10 35.45

Pair Coeffs # lj/cut/coul/long

1 0.066 3.5
2 0.066 3.5
3 0.066 3.5
4 0.03 2.5
5 0.03 2.6
6 0.03 2.2
7 0.17 3.25
8 0.17 3.07
9 0 0
10 0.148 3.77

Bond Coeffs # harmonic

1 340 1.099
2 490 1.498
3 490 1.516
4 340 1.0805
5 317 1.521
6 340 1.085
7 450 1.395
8 553 0.949

Angle Coeffs # harmonic

1 35 110.01
2 35 108.9
3 51.8 110.2
4 35 106.4
5 70 116.6
6 35 108.3
7 80 109.6
8 35 109.3
9 35 111.6
10 35 110.9
11 35 108.73
12 35 108.6
13 35 107.4

Dihedral Coeffs # opls

1 0.1 0.55 0.65 0
2 0 0 0.825 0
3 0 0 0.94 0
4 0 1 0.7 0
5 -6 -5 3.2 0
6 -0.5 -2.5 0.25 0
7 -6 -7 0.75 0
8 6 -3 2 0
9 -0.356 -0.174 0.35 0
10 -3 1 -2 0

Atoms # full

10567 965 7 0.791 9.79864628029259 1.9121123916387752 0.5482677957080319 0 1 1
156 16 8 -0.468 11.457761137407847 7.322534417477978 11.11901746651795 0 0 0
259 24 4 0.033 24.275013450765886 4.437090398414461 9.833433679239985 0 0 0
8884 808 4 0.033 7.251489822958034 6.796941506744952 1.3799982606571324 0 0 1
10622 967 4 0.033 6.039677176913791 3.0215338118509982 3.975549675898277 0 1 1
7217 657 10 -0.8 23.838522767222294 6.465219575334505 4.8886790858814395 0 0 1
8812 805 6 0.034 12.062349349067828 10.970626827380693 0.4351360605638731 0 0 1
8819 805 4 0.033 8.21797381966926 12.583832398579164 1.7197596052867952 0 0 1
10917 997 8 -0.468 1.845183303663671 1.430186827171771 4.3707841465155735 1 1 1
8900 813 6 0.034 18.498203767618904 10.801598991624761 2.1258318611824056 0 0 1
10662 973 1 -0.1 18.272036020689907 0.69650814195877 1.6039345588943814 0 1 1
1855 173 7 0.791 20.714822443600113 2.2607582128861403 9.227950375855025 0 1 0
9192 838 4 0.033 0.5393113151085397 6.048932694553883 4.3223389917205175 1 0 1
9407 856 4 0.033 16.992040319521685 13.51761963481968 0.5498808438746162 0 0 1
8941 815 3 0.132 14.19095857639715 8.89884652574193 3.1856428814650237 0 0 1
8854 807 6 0.034 2.598851265454784 8.365587638006827 4.105965490663186 0 0 1
8882 808 4 0.033 6.24541839703858 6.654157808919884 2.81854846631786 0 0 1
10798 983 4 0.033 24.26301508916202 0.34843214694627045 7.081880558247442 0 1 1
1769 165 5 0.068 12.138782922295292 0.7254035503530712 9.59635400590148 0 1 0
516 48 6 0.034 4.22951166526905 14.083721172160487 11.821979818257338 0 0 0
1766 165 9 0.275 14.289077523246515 1.2665561806460532 10.874726687988241 0 1 0
704 64 4 0.033 22.374867073544554 14.878497339649737 11.038758257087947 0 0 0
8960 816 5 0.068 16.090192378954256 5.835328779750275 1.6351382864050812 0 0 1
1862 173 1 -0.1 21.344215206986902 1.3634544542858804 8.239410885847963 0 1 0
2136 197 4 0.033 1.3493986116097787 2.18007713544227 11.582342625940965 1 1 0
10619 967 4 0.033 3.54460775251154 2.5737418029822527 5.644934826984051 0 1 1
686 64 7 0.791 24.500546953824895 15.434148749686313 11.02648155026003 0 0 0
8852 807 5 0.068 4.295233822307975 8.858299715562612 6.568859990610801 0 0 1
8933 814 4 0.033 16.87750996696554 4.568430333988262 4.538289320749445 0 0 1
1866 173 1 -0.1 21.563096742959488 3.083689252016071 10.136033334409369 0 1 0
3699 339 10 -0.8 9.03670495858153 5.301810177217508 12.099379941398634 0 1 0
8879 808 4 0.033 2.9848568787844867 6.386480147958031 1.2629451559148155 0 0 1
6252 572 10 -0.8 16.514368090722684 1.8428335800841527 9.212186527484306 0 1 1
8845 806 4 0.033 10.327621475236572 3.9021076351708075 3.952171960332658 0 0 1
8856 807 1 -0.1 5.131666466424226 11.43622984834309 6.233106901581007 0 0 1
8857 807 4 0.033 5.680586866471448 12.212310625515505 5.6815762872576245 0 0 1
8859 807 4 0.033 4.2707022810568915 11.75986491571526 6.83460670198765 0 0 1
8858 807 4 0.033 5.782031174370291 10.759604212099978 6.804949963509905 0 0 1
8939 815 5 0.068 13.031281549692864 10.25653809961379 4.262558216701721 0 0 1
10620 967 1 -0.1 5.541521866883517 2.043111731208753 3.927253911696827 0 1 1
252 24 6 0.034 24.47000062586633 8.057261886403936 8.787201242454316 0 0 0
8938 815 2 -0.131 14.085141822278429 10.018964828723655 4.242119769011952 0 0 1
2134 197 1 -0.1 0.8980244129981187 1.1789882881654654 11.538944069713018 1 1 0
8961 816 5 0.068 16.68084666045045 4.755979334277665 0.5325808222831746 0 0 1
10920 997 2 -0.131 1.6517220515331836 1.264812051144171 1.925161793336347 1 1 1
10618 967 4 0.033 4.055883367618394 1.5403845524856201 6.997768316355169 0 1 1
5 5 8 -0.468 8.461563734600627 7.566476189772677 8.707037160553657 0 0 0
263 24 4 0.033 23.4807493458728 6.423617445473638 10.640897529185334 0 0 0
170 16 4 0.033 14.173430515881394 4.4341049231539635 10.214245259954188 0 0 0
8862 807 4 0.033 2.6228762180632894 11.791120452966574 4.8237745057861146 0 0 1
9316 848 6 0.034 4.994267883797957 14.604575739575687 0.3396045553900783 0 0 1
9037 823 4 0.033 23.18238155814232 10.104744498573403 4.548251318704311 0 0 1
1857 173 5 0.068 19.28889842646373 0.550045021606316 9.405508302350325 0 1 0
24 5 4 0.033 11.817616711681895 11.148688180905056 9.961255522074893 0 0 0
9269 846 2 -0.131 9.749121518977887 14.914136770944705 6.4008033575888375 0 0 1
9623 878 5 0.068 0.24032069371992132 14.784477468130955 6.880951644431128 1 0 1
365 37 6 0.034 1.3410334348571236 11.70878053471613 8.937246865835554 1 0 0
9361 854 6 0.034 21.997417125368102 15.36192614663961 3.87691091931238 0 0 1
9947 907 10 -0.8 0.40586050862632994 9.776723797911202 4.965902121923567 1 0 1
1775 165 4 0.033 9.018535486149585 2.2538907687163627 9.238963857515689 0 1 0
9272 846 3 0.132 8.748190048004853 15.385231515984328 7.415805335734752 0 0 1
10658 973 5 0.068 20.29406276394617 1.801455996893453 0.30890005097317824 0 1 1
8899 813 3 0.132 18.663293402665193 9.79787646231222 1.748324918625164 0 0 1
8940 815 5 0.068 14.46551189507392 9.429862944954314 5.064164669394996 0 0 1
9167 837 4 0.033 0.342154333480999 8.263840250007407 0.08749883251759295 1 0 1
1781 165 4 0.033 9.075445685538217 0.21131279425578858 11.915323905885149 0 1 0
9636 878 4 0.033 1.4220071929593285 14.869505820736581 3.3863387871579964 1 0 1
607 56 4 0.033 16.645996896311125 15.528865677521853 11.822241918256037 0 0 0
9635 878 1 -0.1 0.37623049413584514 14.57820961779991 3.5575071669198857 1 0 1
81 8 1 -0.1 2.562099804735309 5.57571718277732 9.476904606807842 0 0 0
1865 173 4 0.033 20.852822569460102 0.7095651419946083 7.5054061014192595 0 1 0
97 13 5 0.068 19.090609016701517 10.424883793194528 7.55500070801786 0 0 0
10580 965 4 0.033 8.588775306754073 0.1485682092078933 0.7171066896321556 0 1 1
92 12 10 -0.8 15.495480973671242 10.521270292002006 0.29817074354859374 0 0 0
370 37 1 -0.1 1.1050982427458995 9.168516636263005 10.763374346208282 1 0 0
10574 965 1 -0.1 10.967065824741763 1.2654857752274964 1.2060462548314195 0 1 1
158 16 7 0.791 15.152707783786934 6.298146157614693 10.56605677380991 0 0 0
85 8 1 -0.1 4.338171098561461 7.3486431197365585 9.163336237823687 0 0 0
8844 806 4 0.033 9.41274877503899 5.2417741103051005 3.4061345283746673 0 0 1
8831 806 5 0.068 11.78857662072232 6.277959217233119 6.04921489645424 0 0 1
8843 806 1 -0.1 10.226727008669442 4.986567298257883 4.0990341734111935 0 0 1
8846 806 4 0.033 11.242349374164164 5.352226220834047 3.8926225432142054 0 0 1
175 16 4 0.033 16.138206386150834 8.083189034913255 11.27208717206867 0 0 0
9168 837 4 0.033 1.7247203871450212 9.21086981760602 0.726953200455519 1 0 1
10788 983 5 0.068 24.75372886543975 2.4371580211347785 6.962176225006379 0 1 1
9035 823 4 0.033 22.854523493951405 12.44005983774331 5.91752192626927 0 0 1
8883 808 4 0.033 6.288446537937955 8.134688135825117 1.9845123902818158 0 0 1
8908 813 4 0.033 22.73198254251001 10.260061141513606 0.6556811811977928 0 0 1
10583 965 4 0.033 8.149220708704767 3.1939035020857722 1.157761684660058 0 1 1
8955 815 4 0.033 16.57194401168932 10.672460197443392 5.289628006187206 0 0 1
9273 846 6 0.034 9.108386187367373 16.361019247673575 7.724548015456047 0 0 1
8820 805 4 0.033 10.037197015256387 12.33546510381509 1.9294770799892433 0 0 1
8842 806 4 0.033 8.374960807469558 5.094437851849829 6.994666925522549 0 0 1
8877 808 1 -0.1 3.930072935251693 6.7491380356601445 1.6905511070551067 0 0 1
8896 813 2 -0.131 20.164095663872345 9.807876705794806 1.382867644385199 0 0 1
9038 823 4 0.033 23.57183163748515 10.127259512114117 6.345037602911609 0 0 1
1763 163 10 -0.8 5.287231752625893 1.0369386032376888 1.0939769020141215 0 1 0
8867 807 4 0.033 6.176731894118894 9.46361385897551 4.552639738533971 0 0 1
25 5 4 0.033 10.750738689251483 12.616614992821068 10.361077292849739 0 0 0
10 5 5 0.068 9.486629923199807 9.920944087905756 8.404933809542802 0 0 0
9402 856 3 0.132 13.557533350215811 15.902644396610341 0.3386085690427887 0 0 1
8865 807 4 0.033 6.01526655260281 10.91595176721365 3.563405438465918 0 0 1
8936 815 9 0.275 13.650440397014265 7.181418709143115 3.659464698559551 0 0 1
10576 965 4 0.033 10.760826022471942 0.9824059503104637 2.2477429235209043 0 1 1
8832 806 3 0.132 11.861217966586125 4.369931007872674 6.8034906887346605 0 0 1
2132 197 4 0.033 0.6999603977838562 0.8319690248439026 8.905800965967263 1 1 0
10659 973 3 0.132 22.2075614921911 1.0859537382622126 0.7264723240293939 0 1 1
8847 807 8 -0.468 2.6186976811454596 7.3280535788243455 5.815478523148661 0 0 1
8808 805 2 -0.131 10.206965838744473 10.168716906849598 0.208995276367728 0 0 1
8870 808 7 0.791 5.210168534788604 6.515605278050041 0.9359172082495375 0 0 1
8910 813 1 -0.1 20.65714283010319 12.172975366516523 1.2375721565741578 0 0 1
359 37 7 0.791 0.41002245601889487 10.269710023258643 11.558872491283049 1 0 0
159 16 2 -0.131 13.841679387028325 6.978273852003261 11.122238447610993 0 0 0
8922 814 6 0.034 19.982631217217882 8.10987712583402 5.409650500074762 0 0 1
8980 820 10 -0.8 19.977867720510062 11.454603731882376 4.974915175206643 0 0 1
8864 807 1 -0.1 5.4531727104438055 10.077771287929151 3.9984973732169626 0 0 1
8866 807 4 0.033 5.074074472107177 9.664501498022753 3.053355159946143 0 0 1
9502 864 4 0.033 24.304025320796175 16.22168239357091 1.9638721041358405 0 0 1
8863 807 4 0.033 3.01421404986518 10.928516573077696 3.4803487078077904 0 0 1
8830 806 5 0.068 10.723004649696625 5.812439655854807 7.4322446748368005 0 0 1
8849 807 7 0.791 4.4508818416194345 10.56007250004243 5.114837925993104 0 0 1
8860 807 1 -0.1 3.5271358374643342 11.449420865001068 4.300940525857441 0 0 1
8861 807 4 0.033 4.045668645234817 12.358952153868938 3.966758620871664 0 0 1
8901 813 6 0.034 18.25926901217741 9.67211834231514 0.7492382452740035 0 0 1
9275 846 1 -0.1 8.629608889797806 16.375427758450872 4.631369849847079 0 0 1
8932 814 4 0.033 18.06358165611076 3.514649223125574 5.39734583087136 0 0 1
8805 805 8 -0.468 12.131376383321598 8.945151723538858 0.9000958141347503 0 0 1
80 8 4 0.033 4.272233948743062 5.105462088728846 11.813599285875693 0 0 0
9373 854 4 0.033 19.731977986234426 14.24657175408601 3.6821990732123098 0 0 1
1861 173 6 0.034 21.054146971785936 1.1446584098951318 11.630520040457613 0 1 0
10625 967 4 0.033 6.8389363280199085 1.1795976023999224 6.844590283264637 0 1 1
514 48 3 0.132 4.485328439030477 13.553515789128223 10.910571557958276 0 0 0
1864 173 4 0.033 22.046434861265496 1.8651305500980069 7.558962772535871 0 1 0
9036 823 1 -0.1 23.95827275952952 10.209426700830132 5.31950710227503 0 0 1
1774 165 1 -0.1 10.10156385917425 2.3131759614076506 9.415982994128969 0 1 0
8956 816 8 -0.468 16.11044446892106 3.158274046694934 2.408394338790279 0 0 1
167 16 4 0.033 15.299869759388477 7.701012672758273 8.85194748154147 0 0 0
8898 813 5 0.068 20.442840034085716 8.849849361885513 0.9681805064604739 0 0 1
22 5 1 -0.1 10.856622457407665 11.663826243919674 9.823691746160039 0 0 0
10918 997 9 0.275 1.1906446832875717 1.3548874441107417 5.0537996321937015 1 1 1
373 37 4 0.033 1.4247360577875625 8.392830105228205 11.473263818615482 1 0 0
261 24 1 -0.1 24.30926134854203 6.708048668269615 11.304574951037603 0 0 0
10623 967 4 0.033 4.567718544572941 2.3992247233988513 3.5629852942008604 0 1 1
8913 813 4 0.033 19.627686447645505 12.378523921216566 1.5627956798412093 0 0 1
164 16 6 0.034 12.361295368883116 5.372975788918703 11.359887690435013 0 0 0
8893 813 8 -0.468 18.358537987723963 8.713285942822969 2.4491177724426905 0 0 1
6953 633 10 -0.8 5.24723293713428 0.9684806203521794 9.370453510664863 1 0 1
8851 807 5 0.068 3.003432583190348 9.882808677055392 6.505003166602068 0 0 1
8840 806 4 0.033 9.325257382170895 3.6458517681301643 6.306464000007382 0 0 1
8850 807 2 -0.131 3.7207559291883765 9.41744744354518 5.844422821585968 0 0 1
8853 807 3 0.132 3.285572946151126 8.23984394910575 4.936523647506446 0 0 1
8855 807 6 0.034 4.019335561109686 7.541461292265222 4.5478347219648425 0 0 1
10627 967 4 0.033 7.470402468821858 0.9680775135016344 5.130307987663686 0 1 1
107 13 4 0.033 19.833749064909355 8.625154053982856 10.283803643137551 0 0 0
1767 165 7 0.791 10.096197139929462 0.9518033796455146 10.236036930841829 0 1 0
9369 854 4 0.033 21.118072480587337 15.098280889021218 7.075717221537042 0 0 1
1868 173 4 0.033 22.09308015058551 3.9007743204559158 9.626827514461299 0 1 0
10654 973 9 0.275 23.240264701548302 2.5984907327599998 1.6821809272733046 0 1 1
8811 805 3 0.132 11.543090095484294 10.180427595130562 0.9672826546567911 0 0 1
93 13 8 -0.468 16.55995870891195 10.012324727047675 8.195436949900234 0 0 0
10621 967 4 0.033 6.181225781672435 1.4495024977225013 3.2592659486115756 0 1 1
8954 815 4 0.033 16.75373368430594 10.84245687995342 3.4735882613825977 0 0 1
8888 808 4 0.033 4.478467101008991 4.635697192703271 0.2083487296690691 0 0 1
8946 815 4 0.033 15.032483322117981 12.894218584578182 5.821097435679022 0 0 1
10656 973 2 -0.131 20.751230337297336 1.2510383051982692 1.1185409700172761 0 1 1
8848 807 9 0.275 3.1011799113373497 6.515174824738412 5.731573662214934 0 0 1
9267 846 9 0.275 8.86694928551056 14.968937557985996 9.244042556480627 0 0 1
9374 854 4 0.033 18.86399160005044 15.900172460044502 3.5585497399454633 0 0 1
8833 806 6 0.034 11.134413977476967 3.724759544702945 7.2859165221477795 0 0 1
9060 824 4 0.033 24.50640831994158 7.685503284684604 0.6322467678285922 0 0 1
9176 837 4 0.033 1.7897392890103938 11.727303534977624 0.8543477178689166 1 0 1
8937 815 7 0.791 14.757986547063286 11.408641333666422 4.3829156713684565 0 0 1
10617 967 4 0.033 4.9627042986527945 2.9495606628233006 6.7421771301058895 0 1 1
795 75 10 -0.8 10.224838574901542 11.44912942305844 5.390068533094085 1 0 0
9400 856 5 0.068 14.554719094040953 13.961201997391505 0.203770891621827 0 0 1
369 37 4 0.033 2.396780238992347 10.98753015422909 12.016973299208773 1 0 0
10585 965 4 0.033 8.427230315581602 1.8061575152860037 2.196414885603959 0 1 1
611 56 4 0.033 13.44470064408482 14.1425043108198 9.262268870263549 0 0 0
8835 806 1 -0.1 9.39227208380192 6.858909076213418 5.281262760829619 0 0 1
8836 806 4 0.033 8.739578992038714 6.992795719213937 6.155257664420491 0 0 1
8837 806 4 0.033 8.526238819165238 6.867929125148523 4.604723038119578 0 0 1
8838 806 4 0.033 10.028324180138425 7.6563682134043365 4.87224232052102 0 0 1
171 16 4 0.033 15.303493754903402 4.455710914377879 11.620075061460687 0 0 0
8716 796 10 -0.8 20.478206994185747 5.424488015308746 0.4489568266632655 0 1 1
372 37 4 0.033 0.5096404612794287 8.78610197078001 9.922547345228333 1 0 0
96 13 2 -0.131 18.82122004876777 10.570760504825447 8.591161799463089 0 0 0
8894 813 9 0.275 18.31507556241143 8.980156712980042 3.3587836448441633 0 0 1
1859 173 3 0.132 20.622228707209572 0.37888628497255583 10.99470194076877 0 1 0
8828 806 7 0.791 9.932253339176421 5.474966105955595 5.502586161748826 0 0 1
8829 806 2 -0.131 11.112516405118235 5.542631627093586 6.461181097391331 0 0 1
8834 806 6 0.034 12.403990667911803 3.7972101651747097 6.058766828016807 0 0 1
8839 806 1 -0.1 8.839473931165603 4.614256699516603 6.122053254456908 0 0 1
8841 806 4 0.033 8.043026824926411 4.427532942845365 5.388154599465503 0 0 1
8942 815 6 0.034 13.8148529051744 9.447760701391246 2.3286348681077116 0 0 1
8944 815 1 -0.1 14.35556628836567 12.039266535325485 5.684564252797702 0 0 1
1779 165 4 0.033 8.300174642339048 1.587866066874468 11.15587706952555 0 1 0
1873 173 4 0.033 20.30030556421973 3.770158767192752 7.78133360930221 0 1 0
9244 844 10 -0.8 10.860986531311177 15.483965637276933 10.410111336267908 0 0 1
165 16 1 -0.1 15.456454912737186 6.649104006449699 9.129021922929105 0 0 0
79 8 4 0.033 5.279191089752779 6.299532945608973 11.436803997392722 0 0 0
23 5 4 0.033 10.721459202257865 11.960824416093583 8.774251906525487 0 0 0
87 8 4 0.033 4.413279020994475 7.121932677474172 8.090600407553342 0 0 0
10714 975 4 0.033 14.658819779689987 1.415228878327376 4.233154328834393 0 1 1
10923 997 3 0.132 1.307492788528772 0.7079118751830933 3.3448319648972933 1 1 1
69 8 9 0.275 6.23163236219702 2.9495596337785797 8.954634885074036 0 0 0
6164 564 10 -0.8 5.1805215204690045 10.163008872595498 11.296133051830724 0 1 0
8962 816 3 0.132 15.147183416212869 3.7523147281268763 1.751450364100447 0 0 1
9282 846 4 0.033 10.596816445932177 15.245328479553178 3.157844238961212 0 0 1
9363 854 1 -0.1 18.94653108422428 16.326473704076065 6.3175241481122475 0 0 1
8827 806 9 0.275 13.668470151919978 4.462673531207834 7.491566775919924 0 0 1
608 56 4 0.033 16.568457199878452 13.881788040922201 11.040319765539433 0 0 0
72 8 5 0.068 4.923572371552836 4.962169615473591 8.090514149632883 0 0 0
10653 973 8 -0.468 22.791996778966098 2.376218378826804 0.8757989665668842 0 1 1
8935 815 8 -0.468 13.110922115366938 7.953219840467048 3.5418040241005304 0 0 1
9621 878 2 -0.131 0.4395825760289929 15.3078725780628 5.9569210657519305 1 0 1
1768 165 2 -0.131 11.613522150532964 0.7364950202899362 10.54052473794244 0 1 0
8885 808 1 -0.1 5.390999453463376 5.038941239624144 0.6693041980127862 0 0 1
605 56 1 -0.1 16.011821379139878 14.667427297734761 11.57015794348404 0 0 0
2137 197 4 0.033 1.615072387685977 0.47930802544558265 11.08718005271211 1 1 0
8963 816 6 0.034 14.270609784069615 3.891527380724332 2.3755204666641205 0 0 1
10616 967 1 -0.1 4.4193476571935335 2.1776102766116274 6.179454155381885 0 1 1
9064 824 4 0.033 23.617260759241482 5.103115812094686 1.0013400011917324 0 0 1
8972 816 4 0.033 13.683206558020181 6.650185340627674 1.315384873506883 0 0 1
610 56 4 0.033 14.974425522165184 13.411919439490129 9.233435498154176 0 0 0
8918 814 5 0.068 20.098863379252233 5.267249271038779 6.207677351566372 0 0 1
8810 805 5 0.068 9.737794684119796 9.404587156855005 0.8118753572747848 0 0 1
14 5 1 -0.1 9.919965083467893 10.441130102902159 11.692563382032281 0 0 0
522 48 4 0.033 6.578228802435245 15.207132958596347 10.315944942077392 0 0 0
9280 846 4 0.033 10.093810781754204 13.918732340198378 4.02497403701064 0 0 1
76 8 6 0.034 6.371212491017489 4.714749632250166 10.554603030736653 0 0 0
6 5 9 0.275 8.534812098052813 6.721718007258129 9.133205307866323 0 0 0
8943 815 6 0.034 15.08638496614824 8.29482344858396 3.0827216773480823 0 0 1
10624 967 1 -0.1 6.792520042333957 1.5162684101054227 5.7994590526406125 0 1 1
3963 363 10 -0.8 14.925802721259126 15.504506156773884 4.4588019467227 0 1 0
7393 673 10 -0.8 8.824082862467773 15.420808015801983 0.4181475861879366 1 0 1
78 8 4 0.033 3.5626591318448564 6.769344856458777 11.856839759873893 0 0 0
99 13 3 0.132 17.636590341020064 9.730482089094856 8.936741420173263 0 0 0
9309 848 9 0.275 5.675608349925518 15.232460424506888 2.272311391175942 0 0 1
12 5 6 0.034 8.088974983515778 8.445425095803941 10.580984757460834 0 0 0
224 23 9 0.275 23.75950727414666 11.416529885210558 11.661413859911075 0 0 0
8929 814 4 0.033 17.796931562724566 7.935158723859811 4.573071859953879 0 0 1
1772 165 6 0.034 12.03273520392883 2.659958977243997 10.86907202904541 0 1 0
10584 965 4 0.033 9.535660047062365 3.2715102939048646 2.210039208140801 0 1 1
21 5 4 0.033 7.546948460485492 10.947288198663319 10.48478924841683 0 0 0
8969 816 1 -0.1 13.509043616598417 6.154794886728083 0.3499541178172353 0 0 1
169 16 1 -0.1 15.124975165308303 4.825358998433667 10.600618144077561 0 0 0
8807 805 7 0.791 9.193525020562287 11.342742674892826 0.22831911653644102 0 0 1
83 8 4 0.033 2.547626251687001 5.313906868225799 8.409643220138577 0 0 0
10793 983 4 0.033 24.803211987459246 2.0683093534695787 3.772287531383426 0 1 1
9367 854 1 -0.1 20.637908256495173 14.608266302139794 6.217155032448434 0 0 1
8947 815 4 0.033 14.554641508081662 11.368407876734468 6.5319831044659 0 0 1
10712 975 1 -0.1 14.456149665338808 1.3347962207403676 5.310306308689557 0 1 1
9281 846 4 0.033 11.563085879509304 14.597154370274573 4.580858330790753 0 0 1
511 48 2 -0.131 4.122643818077159 14.662370952328748 9.954893929651089 0 0 0
10582 965 1 -0.1 8.941018600969057 2.5749987110009 1.602524480285265 0 1 1
9270 846 5 0.068 10.619028085174525 14.376347764863715 6.749408860445017 0 0 1
8813 805 6 0.034 11.162798502266147 10.494546896171034 1.933684409730664 0 0 1
9032 823 1 -0.1 23.572095224955145 12.44612878672347 5.0851428198031545 0 0 1
267 27 10 -0.8 4.068869005826251 15.379541295445666 6.130387489786522 1 0 0
8915 814 9 0.275 22.29229528863373 7.422712350361433 6.657389022031496 0 0 1
702 64 4 0.033 23.587714720611494 13.79398320995883 10.201334346670025 0 0 0
101 13 6 0.034 17.534601235502688 10.076109476843383 9.960149904529572 0 0 0
8952 815 1 -0.1 16.2896038450871 11.235428706601855 4.3889885208612 0 0 1
166 16 4 0.033 16.502413480668267 6.353084033262576 8.967331346424752 0 0 0
251 24 6 0.034 24.63698237508693 6.4031917501599525 8.06828786980444 0 0 0
108 13 4 0.033 21.583889515635796 9.19938783127607 10.254597597697357 0 0 0
1771 165 3 0.132 12.28281687421492 1.734103512033523 11.3764927586079 0 1 0
9634 878 4 0.033 1.5086544925653758 13.091397362685681 5.470524085220858 1 0 1
103 13 4 0.033 20.7005789215626 12.416100583301551 8.924341314178609 0 0 0
13 5 6 0.034 7.308067919572594 9.144596417320155 9.45151421660438 0 0 0
8818 805 1 -0.1 9.079839769264172 11.91391506088111 1.5924849882806607 0 0 1
7 5 7 0.791 9.686771254470342 10.873363021098449 10.314035083010552 0 0 0
9159 837 7 0.791 0.002409471553107286 10.600937190453257 0.4542194832670684 1 0 1
9372 854 4 0.033 18.385662235096447 14.3797952768179 4.555563319958262 0 0 1
1856 173 2 -0.131 19.870629229683008 1.2228664114495078 10.019007211258385 0 1 0
8881 808 1 -0.1 6.266243451363749 7.0524700537860205 1.7944807608466697 0 0 1
1869 173 4 0.033 22.15452878145608 2.4195021567260735 10.781683885439008 0 1 0
173 16 1 -0.1 16.247514684742356 6.990052438099562 11.302171661776294 0 0 0
11 5 3 0.132 8.281386984202951 8.67295442880081 9.537704826900592 0 0 0
9314 848 3 0.132 4.527941754979606 15.53981679818373 0.6313049175140795 0 0 1
8957 816 9 0.275 16.130232977212636 3.2119973212836364 3.355665785585009 0 0 1
1783 165 4 0.033 8.602916852493301 0.39740439815753775 9.060318291761734 0 1 0
598 56 7 0.791 14.977821096686515 15.117447011827434 10.663111107308458 0 0 0
8895 813 7 0.791 20.639210128196517 10.927787443268077 0.47679670995229095 0 0 1
363 37 3 0.132 0.8113607733831726 12.299909241665203 9.677002738001107 1 0 0
1867 173 4 0.033 20.856744569765407 3.703613689706118 10.705736282039489 0 1 0
8925 814 4 0.033 18.346924986374873 5.0239275056587465 3.0648263026323685 0 0 1
7041 641 10 -0.8 4.36226589757608 11.51119428954029 0.9443461269870401 0 0 1
10626 967 4 0.033 7.11639642572723 2.564753196877365 5.739586485477395 0 1 1
176 16 4 0.033 17.246378710428075 6.532520990667578 11.275030844372404 0 0 0
8951 815 4 0.033 12.973634093441337 11.973099049030292 3.247647346077158 0 0 1
509 48 9 0.275 4.04755781200664 11.568658288092701 10.66213676320849 0 0 0
8964 816 6 0.034 14.618931047736728 3.1419087727362345 1.0264820949143705 0 0 1
9174 837 1 -0.1 0.9229888724842303 11.72957247240517 0.17867062035312395 1 0 1
8945 815 4 0.033 13.347730660622279 12.47443233306922 5.632611669872844 0 0 1
9277 846 4 0.033 7.873087193093394 15.693205715318589 4.218999862910847 0 0 1
95 13 7 0.791 19.95529753422736 10.444493286135444 9.569896573592736 0 0 0
10663 973 4 0.033 18.202032559088764 1.6811018142498995 1.1207412242079444 0 1 1
358 37 9 0.275 0.297718428512053 14.024674665930455 9.500231204427747 1 0 0
162 16 3 0.132 12.484839745438 6.3697746737278145 10.949578215207326 0 0 0
8825 805 4 0.033 7.631801438984291 9.846892845204918 0.4335646282615786 0 0 1
612 56 4 0.033 13.92954468758447 13.19025569915566 10.637031966594257 0 0 0
9403 856 6 0.034 13.991876086977522 16.219777279798876 1.2809450835183636 0 0 1
8953 815 4 0.033 16.725522728378433 12.238415035769032 4.497589394888902 0 0 1
9315 848 6 0.034 3.453651158252524 15.397675193356992 0.6853463442195068 0 0 1
9172 837 4 0.033 0.12287327519776786 10.353121129224881 2.676772816827994 1 0 1
10919 997 7 0.791 0.7512243851492911 0.7668936690543192 0.8699074383182938 1 1 1
599 56 2 -0.131 15.501444676309259 16.061777168163175 9.580347772750288 0 0 0
9266 846 8 -0.468 8.528390228497939 14.533134466749496 8.471996948015343 0 0 1
8912 813 4 0.033 21.43148905046269 12.130568566289085 2.016282996264772 0 0 1
8948 815 1 -0.1 14.071794493383734 12.012304618134108 3.2301073747960616 0 0 1
4 4 10 -0.8 0.5300546878813117 15.910278877048162 10.633623267784882 0 0 0
528 48 4 0.033 3.6213982325577785 16.579233763863474 12.002737049012964 0 0 0
521 48 1 -0.1 6.153188112130522 16.03252139168996 9.727833267644968 0 0 0
10657 973 5 0.068 20.664974960547422 1.7006569800231035 2.0972560971955705 0 1 1
109 13 4 0.033 20.824581246813995 8.809977467287158 8.715928564155021 0 0 0
9371 854 1 -0.1 19.172877916061594 15.049724978059206 4.182352042911543 0 0 1
168 16 4 0.033 14.99390868247476 5.949330064088981 8.418973747785165 0 0 0
515 48 6 0.034 5.513884482040826 13.221971662146595 11.007400959644553 0 0 0
10795 983 4 0.033 24.68277422307458 0.3000126873201008 4.1959358314312265 0 1 1
1785 165 4 0.033 10.113783265331183 0.11373668526628859 8.282834320794038 0 1 0
10660 973 6 0.034 22.65902844666081 0.45484771027205306 1.4848309171304472 0 1 1
1871 173 4 0.033 18.941695583660817 3.682562691419365 8.872096546271642 0 1 0
9193 838 4 0.033 0.5008630228287999 5.336467271676126 5.896031072615502 1 0 1
1817 167 4 0.033 4.584353349361109 1.360308645339067 12.11159474868138 0 1 0
703 64 4 0.033 23.04678548510321 15.283428681585255 9.501715975229192 0 0 0
157 16 9 0.275 10.779240839695063 6.98108690336751 11.687897766483067 0 0 0
8914 814 8 -0.468 21.371671283576188 7.6005912445246 6.8037156944616655 0 0 1
8920 814 3 0.132 20.586539677105012 7.255007896810221 5.695514406538288 0 0 1
1858 173 5 0.068 19.17682246895363 1.9176596477154184 10.469978146306234 0 1 0
8926 814 4 0.033 19.739361089694608 4.689857066924805 4.1021052016421375 0 0 1
1863 173 4 0.033 22.06965000952364 0.7111819885112403 8.745460248287348 0 1 0
8924 814 4 0.033 19.60666128712257 6.314365918645633 3.5112521963813634 0 0 1
9370 854 4 0.033 21.381094503724256 13.979553036054194 5.707062082171294 0 0 1
8930 814 4 0.033 16.918142791049455 6.940355833291429 5.98686259601252 0 0 1
2731 251 10 -0.8 19.48925487298721 5.907602234577566 9.85320293404939 0 0 0
1776 165 4 0.033 10.650648764960113 2.2452931078030263 8.466404851627562 0 1 0
443 43 10 -0.8 24.461915158541725 15.830757003910772 6.626856442765016 0 0 0
8931 814 1 -0.1 17.561828910039157 4.492421722923958 5.394870467797918 0 0 1
9033 823 4 0.033 22.885387296870594 12.35579874505699 4.231870473214472 0 0 1
4228 388 10 -0.8 19.814464222700018 16.41052556110682 0.9023137570785846 0 1 1
9368 854 4 0.033 19.900500253301583 13.840490843228082 6.49019579304601 0 0 1
8950 815 4 0.033 14.399789130647878 13.044220177167704 3.04203614684134 0 0 1
9274 846 6 0.034 7.766221798814293 15.472196693575102 6.962594117072916 0 0 1
1939 179 10 -0.8 20.385876324890976 0.9107881480755123 4.677867755662336 0 1 0
8919 814 5 0.068 19.0432523413048 6.288153037019338 7.071093981045587 0 0 1
100 13 6 0.034 17.634990484363612 8.648440151726923 8.85669347655494 0 0 0
8927 814 1 -0.1 17.338702212970997 7.0205369154698305 4.974685850619726 0 0 1
9501 864 1 -0.1 23.78921810595606 16.343999343868358 1.0006415652604574 0 0 1
9622 878 5 0.068 1.486663047191256 15.573402488840188 5.981346308872198 1 0 1
8934 814 4 0.033 16.910076048364044 4.518444124921286 6.279371480438692 0 0 1
163 16 6 0.034 12.610264916567083 6.402038982134728 9.872335195207494 0 0 0
512 48 5 0.068 4.222317871214424 14.202745769300794 8.982119535518176 0 0 0
8959 816 2 -0.131 15.75090706883968 5.016506293464016 1.0171613734650977 0 0 1
600 56 5 0.068 16.06796619083494 15.396185310722785 8.945114665222048 0 0 0
19 5 4 0.033 8.146650690046373 11.903731342900306 9.191348744378889 0 0 0
20 5 4 0.033 8.432913939622651 12.600170872633258 10.75850518315827 0 0 0
10665 973 4 0.033 17.382816478141603 0.07464251106193537 1.4296567952524355 0 1 1
3697 337 10 -0.8 14.389442616081917 5.567870841266618 4.755523910704169 0 1 0
10715 975 4 0.033 15.143446150744488 1.8843477501883676 5.9686509871503155 0 1 1
8928 814 4 0.033 16.58865422692393 6.886587070532529 4.182671674450513 0 0 1
371 37 4 0.033 1.916480619990999 9.60919473612189 10.167335389471356 1 0 0
8923 814 1 -0.1 18.99954811563408 5.4575600709775856 3.8354408812409315 0 0 1
9631 878 1 -0.1 0.4473143956438864 12.911831463310985 5.248906785506255 1 0 1
88 8 4 0.033 5.394934094176324 7.54034443317702 9.396367501418792 0 0 0
2133 197 4 0.033 0.5411900872499281 2.424065078347287 8.978514783231091 1 1 0
8916 814 7 0.791 18.328185559776564 5.815251610001524 5.08830993337857 0 0 1
73 8 5 0.068 4.562223096186353 3.9284192250265084 9.314116734224166 0 0 0
8821 805 4 0.033 8.726297851055403 11.0669534924167 2.1970221760511377 0 0 1
9039 823 4 0.033 24.78887546633993 9.489785596641326 5.315407914655943 0 0 1
70 8 7 0.791 4.003839480950917 6.002691288557734 9.824553993967028 0 0 0
9366 854 4 0.033 18.234666110343255 15.498841687626157 6.444309328879296 0 0 1